Chemical formula,A,B,Valence A,Valence B,Radius A [ang],Radius B [ang],Crystal Type,Crystal Type,a [ang],b [ang],c [ang],alpha [deg],beta [deg],gamma [deg],Band gap [eV],Formation energy [eV/atom],Stability [eV/atom],Magnetic moment [mu_B],Volume per atom [A^3/atom],Vacancy energy [eV/O atom]
CoYO3,Co,Y,3,3,0.61,0.9,rhombohedral,2,5.999,5.999,5.999,54.9,54.9,54.9,1.763,-2.413,0.118,0.8,13.471,-4.168
CoYbO3,Co,Yb,3,3,0.61,0.87,orthorhombic,3,5.273,5.534,8.405,90,90,90,0,-1.924,0.185,1,12.263,-
CoZrO3,Co,Zr,2,4,0.9,0.72,cubic,0,4.099,4.099,4.099,90,90,90,0,-1.951,0.726,0.599,13.778,-0.141
CrAgO3,Cr,Ag,5,1,0.57,1.15,cubic,0,3.985,3.985,3.985,90,90,90,0,-0.164,1.223,0.699,12.66,-5.608
CrBO3,Cr,B,3,3,0.62,0.27,cubic,0,3.335,3.335,3.335,90,90,90,0,-1.27,1.319,0.6,7.418,-0.827
CrCeO3,Cr,Ce,2,4,0.8,0.87,rhombohedral,2,6.225,6.225,6.225,56.2,56.2,56.2,1.726,-2.713,0.369,0.6,15.568,-5.24
CrCoO3,Cr,Co,2,4,0.8,0.53,cubic,0,3.659,3.659,3.659,90,90,90,0,-0.951,0.926,0.505,9.798,-1.758
CrCuO3,Cr,Cu,5,1,0.57,0.77,cubic,0,3.684,3.684,3.684,90,90,90,0,-0.663,0.935,0.628,9.999,-3.867
CrFeO3,Cr,Fe,2,4,0.8,0.59,cubic,0,3.744,3.744,3.744,90,90,90,0,-1.212,0.854,1.6,10.5,-1.245
CrGeO3,Cr,Ge,2,4,0.8,0.53,cubic,0,3.707,3.707,3.707,90,90,90,0,-1.485,0.606,0.801,10.19,1.771
CrHfO3,Cr,Hf,2,4,0.8,0.71,cubic,0,4.057,4.057,4.057,90,90,90,0,-2.54,0.59,0.799,13.358,1.664
CrIrO3,Cr,Ir,2,4,0.8,0.63,cubic,0,3.891,3.891,3.891,90,90,90,0,-0.788,0.931,0.652,11.779,0.54
CrKO3,Cr,K,5,1,0.57,1.38,cubic,0,4.446,4.446,4.446,90,90,90,0,0.388,2.436,0.198,17.573,-11.474
CrMnO3,Cr,Mn,2,4,0.8,0.53,cubic,0,3.737,3.737,3.737,90,90,90,0,-1.433,0.817,1.4,10.438,-1.205
CrMoO3,Cr,Mo,2,4,0.8,0.65,orthorhombic,3,5.227,5.435,7.679,90,90,90,0,-1.952,0.259,1.179,10.908,4.002
CrNaO3,Cr,Na,5,1,0.57,1.02,orthorhombic,3,5.219,5.228,9.089,90,90,90,1.077,-1.835,0.178,0.199,12.402,-8.454
CrNbO3,Cr,Nb,2,4,0.8,0.68,orthorhombic,3,5.231,5.566,7.715,90,90,90,0,-2.348,0.139,0.88,11.23,4.426
CrNiO3,Cr,Ni,2,4,0.8,0.48,cubic,0,3.671,3.671,3.671,90,90,90,0,-0.812,0.96,0.797,9.891,-3.321
CrPbO3,Cr,Pb,2,4,0.8,0.78,orthorhombic,3,5.597,5.687,8.242,90,90,90,0,-1.506,0.364,0.584,13.118,-
CrPdO3,Cr,Pd,2,4,0.8,0.62,cubic,0,3.926,3.926,3.926,90,90,90,0,-0.537,0.989,0.63,12.1,-2.471
CrPrO3,Cr,Pr,2,4,0.8,0.85,rhombohedral,2,6.182,6.182,6.182,56.1,56.1,56.1,1.798,-2.737,0.367,0.6,15.218,-5.186
CrRbO3,Cr,Rb,5,1,0.57,1.52,cubic,0,4.304,4.304,4.304,90,90,90,0,0.555,2.602,0.726,15.945,-13.863
CrReO3,Cr,Re,2,4,0.8,0.63,cubic,0,3.881,3.881,3.881,90,90,90,0,-1.478,0.532,0.97,11.696,3.167
CrRhO3,Cr,Rh,2,4,0.8,0.6,cubic,0,3.879,3.879,3.879,90,90,90,0,-0.789,0.919,0.526,11.675,-0.438
CrRuO3,Cr,Ru,2,4,0.8,0.62,cubic,0,3.856,3.856,3.856,90,90,90,0,-1.033,0.778,0.82,11.469,0.896
CrSbO3,Cr,Sb,2,4,0.8,0.68,cubic,0,3.986,3.986,3.986,90,90,90,0,-1.354,0.677,0.947,12.671,2.01
CrSiO3,Cr,Si,2,4,0.8,0.4,cubic,0,3.531,3.531,3.531,90,90,90,0,-2.168,0.549,0.8,8.808,4.29
CrSnO3,Cr,Sn,2,4,0.8,0.69,cubic,0,4.01,4.01,4.01,90,90,90,0,-1.374,0.76,0.8,12.899,0.712
CrTaO3,Cr,Ta,2,4,0.8,0.68,orthorhombic,3,5.398,5.501,7.732,90,90,90,0,-2.527,0.134,0.95,11.48,5.251
CrTbO3,Cr,Tb,2,4,0.8,0.76,orthorhombic,3,5.492,5.623,8.135,90,90,90,1.461,-2.724,0.34,0.6,12.563,-4.733
CrTeO3,Cr,Te,2,4,0.8,0.97,cubic,0,4.078,4.078,4.078,90,90,90,0,-1.024,0.801,0.945,13.564,1.393
CrThO3,Cr,Th,2,4,0.8,0.94,cubic,0,4.509,4.509,4.509,90,90,90,0,-2.332,1.037,0.798,18.333,-0.954
CrTiO3,Cr,Ti,2,4,0.8,0.61,orthorhombic,3,5.067,5.35,7.511,90,90,90,0.326,-2.743,0.062,0.8,10.181,1.738
CrUO3,Cr,U,2,4,0.8,0.89,cubic,0,4.303,4.303,4.303,90,90,90,0,-2.557,0.562,1.2,15.939,3.426
CrVO3,Cr,V,2,4,0.8,0.58,cubic,0,3.754,3.754,3.754,90,90,90,0,-1.913,0.643,0.89,10.584,1.672
CrWO3,Cr,W,2,4,0.8,0.66,orthorhombic,3,5.39,5.397,7.644,90,90,90,0,-1.948,0.286,0.881,11.119,4.578
CrZrO3,Cr,Zr,2,4,0.8,0.72,cubic,0,4.118,4.118,4.118,90,90,90,0,-2.348,0.659,0.801,13.972,1.022
CsBiO3,Cs,Bi,1,5,1.88,0.76,cubic,0,4.365,4.365,4.365,90,90,90,0,-1.219,0.184,-,16.633,-0.223
CsNbO3,Cs,Nb,1,5,1.88,0.64,tetragonal,1,3.95,3.95,5.431,90,90,90,1.792,-2.601,0.075,0,16.947,4.366
CsReO3,Cs,Re,1,5,1.88,0.58,tetragonal,1,3.848,3.848,5.665,90,90,90,0,-1.663,0.267,0.207,16.777,3.478
CsRuO3,Cs,Ru,1,5,1.88,0.57,tetragonal,1,3.914,3.914,4.595,90,90,90,0,-1.157,0.264,0.002,14.074,0.864
CsSbO3,Cs,Sb,1,5,1.88,0.6,tetragonal,1,3.789,3.789,6.312,90,90,90,0,-1.628,0.179,-,18.125,0.82
CsTaO3,Cs,Ta,1,5,1.88,0.64,tetragonal,1,3.905,3.905,5.558,90,90,90,2.565,-2.796,0.049,0,16.951,-
CsTeO3,Cs,Te,1,5,1.88,0.77,tetragonal,1,4.033,4.033,5.447,90,90,90,0,-1.442,0.123,-,17.715,0.598
CsUO3,Cs,U,1,5,1.88,0.76,orthorhombic,3,6.245,6.245,8.834,90,90,90,2.721,-3.045,0.01,0.2,17.228,4.067
CuAsO3,Cu,As,1,5,0.77,0.46,rhombohedral,2,5.167,5.167,5.167,58.9,58.9,58.9,0,-1.028,0.154,-,9.505,0.91
CuBO3,Cu,B,3,3,0.54,0.27,cubic,0,3.319,3.319,3.319,90,90,90,0,-0.524,1.118,-,7.313,-3.221
CuBiO3,Cu,Bi,1,5,0.77,0.76,rhombohedral,2,5.752,5.752,5.752,57.9,57.9,57.9,0,-0.999,0.095,-,12.822,-0.242
CuCoO3,Cu,Co,2,4,0.73,0.53,cubic,0,3.665,3.665,3.665,90,90,90,0,-0.389,0.56,0.75,9.845,-1.005
CuCrO3,Cu,Cr,1,5,0.77,0.49,cubic,0,3.705,3.705,3.705,90,90,90,0,-1.078,0.52,0.2,10.174,-0.457
CuFeO3,Cu,Fe,2,4,0.73,0.59,cubic,0,3.717,3.717,3.717,90,90,90,0,-0.649,0.508,0.959,10.271,-1.512
CuGeO3,Cu,Ge,2,4,0.73,0.53,cubic,0,3.698,3.698,3.698,90,90,90,0,-0.911,0.545,-,10.115,-0.446
CuIrO3,Cu,Ir,1,5,0.77,0.57,cubic,0,3.853,3.853,3.853,90,90,90,0,-0.389,0.572,0.248,11.438,0.844
CuMnO3,Cu,Mn,2,4,0.73,0.53,cubic,0,3.714,3.714,3.714,90,90,90,0,-0.835,0.558,0.4,10.248,-1.681
CuMoO3,Cu,Mo,1,5,0.77,0.61,rhombohedral,2,5.484,5.484,5.484,55.9,55.9,55.9,0,-1.645,0.089,0,10.565,3.985
CuNbO3,Cu,Nb,1,5,0.77,0.64,rhombohedral,2,5.59,5.59,5.59,55.7,55.7,55.7,0.787,-2.121,0.066,0,11.121,4.362
CuNiO3,Cu,Ni,2,4,0.73,0.48,cubic,0,3.663,3.663,3.663,90,90,90,0,-0.121,0.698,0.558,9.833,-2.679
CuReO3,Cu,Re,1,5,0.77,0.58,rhombohedral,2,5.38,5.38,5.38,57.4,57.4,57.4,0,-1.324,0.196,0,10.363,3.638
CuRhO3,Cu,Rh,2,4,0.73,0.6,cubic,0,3.851,3.851,3.851,90,90,90,0,-0.302,0.643,0.453,11.424,-0.321
CuRuO3,Cu,Ru,1,5,0.77,0.57,orthorhombic,3,5.109,5.125,7.479,90,90,90,0,-0.955,0.128,0.199,9.792,1.467
CuSbO3,Cu,Sb,1,5,0.77,0.6,rhombohedral,2,5.447,5.447,5.447,58.4,58.4,58.4,0,-1.305,0.03,-,11.001,2.079
CuTaO3,Cu,Ta,1,5,0.77,0.64,orthorhombic,3,5.233,5.456,7.643,90,90,90,1.36,-2.32,0.077,0,10.912,5.237
CuTeO3,Cu,Te,2,4,0.73,0.97,rhombohedral,2,5.602,5.602,5.602,57.6,57.6,57.6,0,-0.951,0.151,-,11.749,1.048
CuTiO3,Cu,Ti,2,4,0.73,0.61,orthorhombic,3,4.937,5.24,7.512,90,90,90,0.653,-2.142,0.126,0.2,9.718,-0.66
CuUO3,Cu,U,1,5,0.77,0.76,rhombohedral,2,5.912,5.912,5.912,56.1,56.1,56.1,1.769,-2.609,0.011,0.2,13.29,3.288
CuVO3,Cu,V,1,5,0.77,0.54,orthorhombic,3,4.949,5.134,7.463,90,90,90,0.343,-1.737,0.111,0,9.48,1.779
CuWO3,Cu,W,1,5,0.77,0.62,rhombohedral,2,5.5,5.5,5.5,56,56,56,0,-1.739,0.217,-0.001,10.669,4.639
DyAlO3,Dy,Al,3,3,1.08,0.54,orthorhombic,3,5.175,5.338,7.383,90,90,90,6.026,-3.588,-0.03,0,10.198,6.313
DyAsO3,Dy,As,3,3,1.08,0.58,cubic,0,3.988,3.988,3.988,90,90,90,0,-1.907,0.782,0,12.687,2.144
DyCeO3,Dy,Ce,2,4,1.19,0.87,cubic,0,4.532,4.532,4.532,90,90,90,0,-2.306,1.379,0,18.617,-3.241
DyCoO3,Dy,Co,3,3,1.08,0.61,orthorhombic,3,5.177,5.555,7.474,90,90,90,1.438,-2.532,0.02,0.001,10.746,-
DyCrO3,Dy,Cr,3,3,1.08,0.62,orthorhombic,3,5.265,5.569,7.582,90,90,90,2.524,-3.204,-0.038,0.6,11.115,4.239
DyCuO3,Dy,Cu,3,3,1.08,0.54,orthorhombic,3,5.205,5.86,7.189,90,90,90,0.256,-2.282,0.047,0,10.964,0.68
DyFeO3,Dy,Fe,3,3,1.08,0.65,orthorhombic,3,5.283,5.597,7.611,90,90,90,1.179,-2.782,-0.033,1,11.252,3.193
DyGaO3,Dy,Ga,3,3,1.08,0.62,orthorhombic,3,5.263,5.558,7.56,90,90,90,4.078,-2.972,0.017,0,11.058,4.452
DyGeO3,Dy,Ge,2,4,1.19,0.53,cubic,0,3.868,3.868,3.868,90,90,90,0,-2.216,0.609,0,11.572,2.802
DyHfO3,Dy,Hf,2,4,1.19,0.71,cubic,0,4.067,4.067,4.067,90,90,90,0,-3.131,0.522,0,13.456,4.507
DyIrO3,Dy,Ir,2,4,1.19,0.63,cubic,0,3.949,3.949,3.949,90,90,90,0,-1.646,0.758,0,12.315,-0.915
DyMnO3,Dy,Mn,2,4,1.19,0.53,orthorhombic,3,5.281,5.721,7.486,90,90,90,0.262,-2.96,0.024,0.8,11.308,3.481
DyMoO3,Dy,Mo,2,4,1.19,0.65,cubic,0,3.951,3.951,3.951,90,90,90,0,-2.278,0.616,0.005,12.338,1.68
DyNbO3,Dy,Nb,2,4,1.19,0.68,cubic,0,4.023,4.023,4.023,90,90,90,0,-2.601,0.614,0.001,13.018,3.104
DyNiO3,Dy,Ni,3,3,1.08,0.6,orthorhombic,3,5.166,5.518,7.395,90,90,90,0,-2.408,0.013,0.2,10.539,1.062
DyPbO3,Dy,Pb,2,4,1.19,0.78,cubic,0,4.285,4.285,4.285,90,90,90,0,-1.5,1.042,0,15.731,0.598
DyPdO3,Dy,Pd,2,4,1.19,0.62,orthorhombic,3,5.378,5.881,7.508,90,90,90,0,-2.205,-0.02,0.005,11.872,-0.109
DyPrO3,Dy,Pr,2,4,1.19,0.85,cubic,0,4.487,4.487,4.487,90,90,90,0.321,-2.403,1.31,0,18.062,-2.614
DyReO3,Dy,Re,2,4,1.19,0.63,cubic,0,3.943,3.943,3.943,90,90,90,0,-1.905,0.788,0.162,12.263,0.216
DyRhO3,Dy,Rh,2,4,1.19,0.6,cubic,0,3.912,3.912,3.912,90,90,90,0,-1.855,0.537,0,11.974,-
DyRuO3,Dy,Ru,2,4,1.19,0.62,cubic,0,3.911,3.911,3.911,90,90,90,0,-1.91,0.585,0.128,11.963,0.667
DySbO3,Dy,Sb,3,3,1.08,0.76,cubic,0,4.203,4.203,4.203,90,90,90,0,-1.734,0.98,0,14.845,0.89
DyScO3,Dy,Sc,3,3,1.08,0.75,orthorhombic,3,5.422,5.711,7.886,90,90,90,4.69,-3.803,0.026,0,12.208,5.05
DySiO3,Dy,Si,3,3,1.08,0.4,cubic,0,3.682,3.682,3.682,90,90,90,0,-2.642,0.667,0.001,9.983,4.576
DySnO3,Dy,Sn,2,4,1.19,0.69,cubic,0,4.103,4.103,4.103,90,90,90,0,-2.01,0.843,0,13.812,2.274
DyTaO3,Dy,Ta,2,4,1.19,0.68,cubic,0,4.002,4.002,4.002,90,90,90,0,-2.68,0.648,0.001,12.815,3.128
DyTbO3,Dy,Tb,2,4,1.19,0.76,cubic,0,4.285,4.285,4.285,90,90,90,1.366,-2.717,0.988,0,15.738,0.427
DyTeO3,Dy,Te,2,4,1.19,0.97,cubic,0,4.23,4.23,4.23,90,90,90,0,-1.422,1.134,0.003,15.137,0.801
DyThO3,Dy,Th,2,4,1.19,0.94,cubic,0,4.552,4.552,4.552,90,90,90,0,-2.775,1.057,0.024,18.86,2.41
DyTiO3,Dy,Ti,2,4,1.19,0.61,orthorhombic,3,5.299,5.668,7.63,90,90,90,0,-3.464,0.022,0.2,11.46,4.715
DyUO3,Dy,U,2,4,1.19,0.89,cubic,0,4.387,4.387,4.387,90,90,90,0,-2.574,1.07,0.548,16.889,2.268
DyVO3,Dy,V,2,4,1.19,0.58,orthorhombic,3,5.296,5.659,7.618,90,90,90,1.112,-3.271,-0.03,0.4,11.416,3.989
DyWO3,Dy,W,2,4,1.19,0.66,cubic,0,3.958,3.958,3.958,90,90,90,0,-2.199,0.743,0.001,12.402,1.216
DyZrO3,Dy,Zr,2,4,1.19,0.72,cubic,0,4.122,4.122,4.122,90,90,90,0,-2.962,0.607,0,14.002,4.153
ErAgO3,Er,Ag,3,3,1.06,0.75,cubic,0,4.006,4.006,4.006,90,90,90,0,-1.379,0.682,0,12.853,-0.743
ErAlO3,Er,Al,3,3,1.06,0.54,orthorhombic,3,5.131,5.341,7.343,90,90,90,6.221,-3.602,-0.022,0,10.062,6.255
ErAsO3,Er,As,3,3,1.06,0.58,cubic,0,3.981,3.981,3.981,90,90,90,0,-1.854,0.817,0,12.618,2.013
ErBO3,Er,B,3,3,1.06,0.27,cubic,0,3.434,3.434,3.434,90,90,90,3.096,-2.53,0.812,0,8.096,5.502
ErBiO3,Er,Bi,3,3,1.06,1.03,cubic,0,4.359,4.359,4.359,90,90,90,0,-1.46,1.225,0,16.569,0.529
ErCeO3,Er,Ce,3,3,1.06,1.01,cubic,0,4.529,4.529,4.529,90,90,90,0,-2.242,1.466,0,18.584,-3.532
ErCoO3,Er,Co,3,3,1.06,0.61,orthorhombic,3,5.144,5.549,7.428,90,90,90,1.392,-2.551,0.024,0,10.601,2.225
ErCrO3,Er,Cr,3,3,1.06,0.62,orthorhombic,3,5.23,5.551,7.545,90,90,90,2.462,-3.217,-0.028,0.6,10.953,4.12
ErCuO3,Er,Cu,3,3,1.06,0.54,orthorhombic,3,5.179,5.849,7.137,90,90,90,0.269,-2.296,0.052,0,10.81,0.539
ErDyO3,Er,Dy,3,3,1.06,0.91,cubic,0,4.251,4.251,4.251,90,90,90,1.129,-2.844,1.029,0,15.36,0.313
Er2O3,Er,Er,3,3,1.06,0.89,cubic,0,4.21,4.21,4.21,90,90,90,1.559,-2.947,0.949,0,14.923,1.088
ErEuO3,Er,Eu,3,3,1.06,0.95,cubic,0,4.247,4.247,4.247,90,90,90,0,-2.07,1.237,0.097,15.316,-2.26
ErFeO3,Er,Fe,3,3,1.06,0.65,orthorhombic,3,5.246,5.578,7.578,90,90,90,1.224,-2.795,-0.021,1,11.088,-
ErGaO3,Er,Ga,3,3,1.06,0.62,orthorhombic,3,5.225,5.544,7.52,90,90,90,4.076,-2.985,0.021,0,10.892,4.343
ErGdO3,Er,Gd,3,3,1.06,0.94,cubic,0,4.309,4.309,4.309,90,90,90,0.817,-2.729,1.116,0,16.005,-0.434
ErGeO3,Er,Ge,3,3,1.06,0.63,cubic,0,3.859,3.859,3.859,90,90,90,0,-2.171,0.628,0,11.493,2.685
ErHfO3,Er,Hf,3,3,1.06,0.71,cubic,0,4.066,4.066,4.066,90,90,90,0,-3.081,0.595,0,13.445,4.399
ErHoO3,Er,Ho,3,3,1.06,0.9,cubic,0,4.229,4.229,4.229,90,90,90,1.411,-2.897,0.988,0,15.123,0.759
ErInO3,Er,In,3,3,1.06,0.8,cubic,0,4.083,4.083,4.083,90,90,90,1.406,-2.095,0.775,0,13.618,2.577
ErIrO3,Er,Ir,3,3,1.06,0.68,cubic,0,3.942,3.942,3.942,90,90,90,0,-1.595,0.832,0,12.25,-1.136
ErLaO3,Er,La,3,3,1.06,1.03,cubic,0,4.505,4.505,4.505,90,90,90,0,-2.364,1.44,0,18.281,1.788
ErLuO3,Er,Lu,3,3,1.06,0.86,cubic,0,4.14,4.14,4.14,90,90,90,0.987,-3.092,0.837,0,14.189,2.182
ErMnO3,Er,Mn,3,3,1.06,0.65,orthorhombic,3,5.243,5.699,7.457,90,90,90,0.273,-2.971,0.036,0.8,11.143,3.37
ErMoO3,Er,Mo,3,3,1.06,0.69,cubic,0,3.946,3.946,3.946,90,90,90,0,-2.225,0.693,0.005,12.292,1.409
ErNbO3,Er,Nb,3,3,1.06,0.72,cubic,0,4.02,4.02,4.02,90,90,90,0,-2.547,0.685,0,12.992,2.89
ErNdO3,Er,Nd,3,3,1.06,0.98,cubic,0,4.445,4.445,4.445,90,90,90,0,-2.424,1.334,0,17.56,-2.591
ErNiO3,Er,Ni,3,3,1.06,0.6,orthorhombic,3,5.116,5.532,7.326,90,90,90,0,-2.422,0.023,0.2,10.367,0.935
ErPrO3,Er,Pr,3,3,1.06,0.99,cubic,0,4.485,4.485,4.485,90,90,90,0,-2.34,1.396,0,18.047,-2.93
ErReO3,Er,Re,3,3,1.06,0.63,cubic,0,3.939,3.939,3.939,90,90,90,0,-1.852,0.865,0.161,12.22,-0.079
ErRhO3,Er,Rh,3,3,1.06,0.67,cubic,0,3.902,3.902,3.902,90,90,90,0,-1.806,0.609,0.001,11.886,-0.384
ErRuO3,Er,Ru,3,3,1.06,0.68,cubic,0,3.904,3.904,3.904,90,90,90,0,-1.86,0.658,0.133,11.897,0.413
ErSbO3,Er,Sb,3,3,1.06,0.76,cubic,0,4.198,4.198,4.198,90,90,90,0,-1.678,1.06,0,14.796,0.53
ErScO3,Er,Sc,3,3,1.06,0.75,cubic,0,3.976,3.976,3.976,90,90,90,2.751,-3.269,0.583,0,12.575,4.961
ErSiO3,Er,Si,3,3,1.06,0.4,cubic,0,3.663,3.663,3.663,90,90,90,0,-2.61,0.795,0.001,9.83,4.497
ErSmO3,Er,Sm,3,3,1.06,0.96,cubic,0,4.376,4.376,4.376,90,90,90,0.533,-2.573,1.226,0,16.759,-1.555
ErTaO3,Er,Ta,3,3,1.06,0.72,cubic,0,3.998,3.998,3.998,90,90,90,0,-2.629,0.713,0,12.78,2.891
ErTbO3,Er,Tb,3,3,1.06,0.92,cubic,0,4.282,4.282,4.282,90,90,90,0.985,-2.658,1.071,0,15.697,0
ErTiO3,Er,Ti,3,3,1.06,0.67,orthorhombic,3,5.262,5.649,7.595,90,90,90,0,-3.473,0.036,0.2,11.287,4.577
ErTlO3,Er,Tl,3,3,1.06,0.89,cubic,0,4.226,4.226,4.226,90,90,90,0,-1.384,1.033,0,15.091,0.415
ErTmO3,Er,Tm,3,3,1.06,0.88,cubic,0,4.179,4.179,4.179,90,90,90,1.701,-3.008,0.906,0,14.6,2.033
ErUO3,Er,U,3,3,1.06,1.03,cubic,0,4.383,4.383,4.383,90,90,90,0,-2.528,1.139,0.527,16.835,1.558
ErVO3,Er,V,3,3,1.06,0.64,orthorhombic,3,5.263,5.637,7.585,90,90,90,1.138,-3.282,-0.018,0.4,11.251,3.881
ErWO3,Er,W,3,3,1.06,0.66,cubic,0,3.955,3.955,3.955,90,90,90,0,-2.147,0.867,0,12.372,0.934
ErYO3,Er,Y,3,3,1.06,0.9,cubic,0,4.254,4.254,4.254,90,90,90,1.447,-2.821,1.031,0,15.395,0.436
ErYbO3,Er,Yb,3,3,1.06,0.87,cubic,0,4.087,4.087,4.087,90,90,90,0,-2.33,1.022,-0.156,13.649,-2.139
ErZrO3,Er,Zr,3,3,1.06,0.72,cubic,0,4.119,4.119,4.119,90,90,90,0,-2.91,0.683,0,13.973,4.018
EuAgO3,Eu,Ag,3,3,1.12,0.75,orthorhombic,3,5.538,5.81,7.843,90,90,90,0,-1.517,-0.027,0,12.617,-0.606
EuAlO3,Eu,Al,3,3,1.12,0.54,cubic,0,3.724,3.724,3.724,90,90,90,0,-3.105,-0.075,0.166,10.325,0.755
EuAsO3,Eu,As,3,3,1.12,0.58,tetragonal,1,3.81,3.81,4.188,90,90,90,0,-2.314,-0.081,0,12.16,2.453
EuBiO3,Eu,Bi,3,3,1.12,1.03,orthorhombic,3,5.807,6.071,8.373,90,90,90,0,-2.255,-0.106,0,14.761,1.429
EuCeO3,Eu,Ce,2,4,1.48,0.87,cubic,0,4.494,4.494,4.494,90,90,90,0,-2.557,0.562,0.2,18.15,-1.183
EuCoO3,Eu,Co,2,4,1.48,0.53,orthorhombic,3,5.258,5.313,7.577,90,90,90,0,-2.138,-0.038,0.6,10.583,1.59
EuCrO3,Eu,Cr,2,4,1.48,0.55,orthorhombic,3,5.334,5.352,7.569,90,90,90,0.605,-2.8,-0.051,0.4,10.803,2.113
EuCuO3,Eu,Cu,3,3,1.12,0.54,orthorhombic,3,5.269,5.329,7.509,90,90,90,0,-1.783,0.059,-0.026,10.542,0.065
EuDyO3,Eu,Dy,3,3,1.12,0.91,orthorhombic,3,5.866,6.064,8.278,90,90,90,0,-3.173,0.11,0.198,14.724,-0.884
EuErO3,Eu,Er,3,3,1.12,0.89,orthorhombic,3,5.813,6.018,8.236,90,90,90,0,-3.209,0.098,0.2,14.407,-0.805
Eu2O3,Eu,Eu,3,3,1.12,0.95,cubic,0,4.2,4.2,4.2,90,90,90,0,-2.199,0.519,0.011,14.814,-1.227
EuFeO3,Eu,Fe,3,3,1.12,0.65,orthorhombic,3,5.324,5.363,7.551,90,90,90,0,-2.417,-0.078,0.8,10.78,1.667
EuGaO3,Eu,Ga,3,3,1.12,0.62,rhombohedral,2,5.329,5.329,5.329,62.3,62.3,62.3,0,-2.43,0.013,0.199,11.255,-0.252
EuGdO3,Eu,Gd,3,3,1.12,0.94,orthorhombic,3,5.913,6.098,8.353,90,90,90,0,-3.132,0.123,0.199,15.06,-0.954
EuGeO3,Eu,Ge,2,4,1.48,0.53,rhombohedral,2,5.284,5.284,5.284,60.5,60.5,60.5,1.791,-2.704,-0.212,0,10.559,4.364
EuHfO3,Eu,Hf,2,4,1.48,0.71,orthorhombic,3,5.623,5.727,8.01,90,90,90,4.521,-3.844,-0.182,0,12.898,6.69
EuHoO3,Eu,Ho,3,3,1.12,0.9,orthorhombic,3,5.835,6.039,8.266,90,90,90,0,-3.192,0.104,0.2,14.563,-0.853
EuInO3,Eu,In,3,3,1.12,0.8,orthorhombic,3,5.687,5.96,7.949,90,90,90,0,-2.217,0.085,0.2,13.472,-0.835
EuIrO3,Eu,Ir,2,4,1.48,0.63,orthorhombic,3,5.351,5.695,7.722,90,90,90,0,-2.097,-0.043,0.051,11.766,1.311
EuLaO3,Eu,La,3,3,1.12,1.03,orthorhombic,3,5.979,6.232,8.697,90,90,90,0,-3.074,0.141,0.2,16.201,-0.814
EuLuO3,Eu,Lu,3,3,1.12,0.86,orthorhombic,3,5.739,5.952,8.162,90,90,90,0,-3.261,0.094,0.2,13.942,-0.626
EuMnO3,Eu,Mn,2,4,1.48,0.53,rhombohedral,2,5.283,5.283,5.283,60.9,60.9,60.9,0,-2.612,0.003,0.6,10.64,1.741
EuMoO3,Eu,Mo,2,4,1.48,0.65,orthorhombic,3,5.49,5.587,7.83,90,90,90,0,-2.815,-0.101,0.002,12.007,4.925
EuNbO3,Eu,Nb,2,4,1.48,0.68,orthorhombic,3,5.571,5.681,7.963,90,90,90,0,-3.211,-0.053,0,12.602,5.532
EuNdO3,Eu,Nd,3,3,1.12,0.98,cubic,0,4.414,4.414,4.414,90,90,90,0,-2.666,0.567,0.2,17.198,-1.14
EuNiO3,Eu,Ni,3,3,1.12,0.6,orthorhombic,3,5.28,5.287,7.537,90,90,90,0,-1.895,0,0,10.519,0.409
EuPbO3,Eu,Pb,2,4,1.48,0.78,orthorhombic,3,5.726,5.984,8.227,90,90,90,1.234,-2.177,-0.15,0,14.096,1.477
EuPdO3,Eu,Pd,2,4,1.48,0.62,orthorhombic,3,5.416,5.659,7.747,90,90,90,0.454,-1.884,-0.09,0,11.872,0.085
EuPrO3,Eu,Pr,2,4,1.48,0.85,cubic,0,4.451,4.451,4.451,90,90,90,0,-2.616,0.53,0.2,17.636,-1.142
EuReO3,Eu,Re,2,4,1.48,0.63,orthorhombic,3,5.458,5.58,7.778,90,90,90,0,-2.45,-0.067,-0.002,11.845,3.283
EuRhO3,Eu,Rh,2,4,1.48,0.6,orthorhombic,3,5.371,5.626,7.717,90,90,90,0,-2.109,-0.128,0.194,11.66,1.403
EuRuO3,Eu,Ru,2,4,1.48,0.62,orthorhombic,3,5.413,5.571,7.738,90,90,90,0,-2.26,-0.112,0.383,11.669,2.747
EuSbO3,Eu,Sb,3,3,1.12,0.76,orthorhombic,3,5.676,5.893,8.142,90,90,90,0,-2.434,-0.04,0,13.617,2.693
EuScO3,Eu,Sc,3,3,1.12,0.75,orthorhombic,3,5.567,5.786,7.954,90,90,90,0,-3.238,0.03,0.2,12.808,-0.446
EuSiO3,Eu,Si,3,3,1.12,0.4,cubic,0,3.593,3.593,3.593,90,90,90,3.989,-3.283,0.001,0,9.277,6.453
EuSmO3,Eu,Sm,3,3,1.12,0.96,orthorhombic,3,5.955,6.169,8.438,90,90,90,0,-3.075,0.134,0.2,15.5,-1.08
EuSnO3,Eu,Sn,2,4,1.48,0.69,orthorhombic,3,5.587,5.716,7.989,90,90,90,2.578,-2.701,-0.171,0,12.755,3.686
EuTaO3,Eu,Ta,2,4,1.48,0.68,orthorhombic,3,5.561,5.643,7.948,90,90,90,0,-3.311,0.037,0,12.47,5.762
EuTbO3,Eu,Tb,2,4,1.48,0.76,orthorhombic,3,5.907,6.1,8.269,90,90,90,0,-3.023,0.116,0.199,14.899,-0.919
EuTeO3,Eu,Te,2,4,1.48,0.97,orthorhombic,3,5.718,6.001,8.244,90,90,90,0.215,-2.197,0.146,0,14.143,2.866
EuThO3,Eu,Th,2,4,1.48,0.94,orthorhombic,3,6.017,6.239,8.697,90,90,90,4.512,-3.803,0.097,0,16.323,5.479
EuTiO3,Eu,Ti,2,4,1.48,0.61,orthorhombic,3,5.443,5.458,7.697,90,90,90,2.192,-3.558,-0.254,0,11.432,5.431
EuTlO3,Eu,Tl,3,3,1.12,0.89,orthorhombic,3,5.709,6.093,8.144,90,90,90,0,-1.756,0.088,0.047,14.166,-0.874
EuTmO3,Eu,Tm,3,3,1.12,0.88,orthorhombic,3,5.803,6,8.181,90,90,90,0,-3.234,0.09,0.2,14.242,-0.721
EuUO3,Eu,U,2,4,1.48,0.89,cubic,0,4.399,4.399,4.399,90,90,90,0,-3.143,0.507,0.382,17.029,4.988
EuVO3,Eu,V,2,4,1.48,0.58,orthorhombic,3,5.361,5.369,7.689,90,90,90,0,-3.1,-0.093,0.2,11.066,4.117
EuWO3,Eu,W,2,4,1.48,0.66,orthorhombic,3,5.503,5.595,7.854,90,90,90,0,-2.797,0.116,0,12.094,4.772
EuYO3,Eu,Y,3,3,1.12,0.9,orthorhombic,3,5.931,6.134,8.122,90,90,90,0,-3.153,0.109,0.2,14.773,-1.052
EuYbO3,Eu,Yb,3,3,1.12,0.87,cubic,0,4.107,4.107,4.107,90,90,90,0,-2.275,0.487,0.083,13.857,-1.411
EuZrO3,Eu,Zr,2,4,1.48,0.72,orthorhombic,3,5.661,5.809,8.087,90,90,90,4.134,-3.691,0,0,13.299,6.201
FeAgO3,Fe,Ag,3,3,0.78,0.75,orthorhombic,3,5.105,5.26,8.427,90,90,90,0,-0.778,0.18,0.861,11.314,-3.294
FeAlO3,Fe,Al,3,3,0.78,0.54,cubic,0,3.615,3.615,3.615,90,90,90,0,-1.806,0.652,0.997,9.452,-1.638
FeAsO3,Fe,As,3,3,0.78,0.58,cubic,0,3.758,3.758,3.758,90,90,90,0,-0.842,0.71,0.724,10.618,0.012
FeBO3,Fe,B,3,3,0.78,0.27,cubic,0,3.322,3.322,3.322,90,90,90,0,-1.021,1.146,0.999,7.332,-1.342