Chemical formula,A,B,Valence A,Valence B,Radius A [ang],Radius B [ang],Crystal Type,Crystal Type,a [ang],b [ang],c [ang],alpha [deg],beta [deg],gamma [deg],Band gap [eV],Formation energy [eV/atom],Stability [eV/atom],Magnetic moment [mu_B],Volume per atom [A^3/atom],Vacancy energy [eV/O atom]
WLuO3,W,Lu,3,3,0.66,0.86,cubic,0,4.134,4.134,4.134,90,90,90,0,-1.076,1.952,0.6,14.129,-7.232
WMgO3,W,Mg,4,2,0.66,0.72,cubic,0,3.692,3.692,3.692,90,90,90,0,-0.859,1.696,0.387,10.061,-4.827
WMnO3,W,Mn,3,3,0.66,0.65,cubic,0,3.803,3.803,3.803,90,90,90,0,-0.567,1.642,1.4,10.998,-5.286
WMoO3,W,Mo,3,3,0.66,0.69,cubic,0,3.939,3.939,3.939,90,90,90,0,-0.494,1.463,0.798,12.221,-2.432
WNbO3,W,Nb,3,3,0.66,0.72,cubic,0,4.016,4.016,4.016,90,90,90,0,-0.916,1.392,0.837,12.956,-0.106
WNdO3,W,Nd,3,3,0.66,0.98,cubic,0,4.434,4.434,4.434,90,90,90,0,-0.471,2.453,0.599,17.431,-11.381
WNiO3,W,Ni,4,2,0.66,0.69,cubic,0,3.673,3.673,3.673,90,90,90,0,-0.224,1.732,0.779,9.906,-3.922
WPbO3,W,Pb,2,4,0.66,0.78,cubic,0,4.216,4.216,4.216,90,90,90,0,0.343,2.317,0.767,14.985,-
WPdO3,W,Pd,4,2,0.66,0.86,cubic,0,3.93,3.93,3.93,90,90,90,0,0.378,2.334,0.579,12.139,-5.756
WPrO3,W,Pr,3,3,0.66,0.99,cubic,0,4.468,4.468,4.468,90,90,90,0,-0.405,2.451,0.6,17.833,-11.743
WReO3,W,Re,3,3,0.66,0.63,cubic,0,3.925,3.925,3.925,90,90,90,0,-0.123,1.833,0.792,12.096,-4.812
WRhO3,W,Rh,3,3,0.66,0.67,cubic,0,3.891,3.891,3.891,90,90,90,0,0.182,2.139,0.528,11.783,-5.188
WRuO3,W,Ru,3,3,0.66,0.68,cubic,0,3.886,3.886,3.886,90,90,90,0,0.059,2.015,0.446,11.738,-4.789
WScO3,W,Sc,3,3,0.66,0.75,cubic,0,3.96,3.96,3.96,90,90,90,0,-1.236,1.647,0.599,12.422,-5.206
WSiO3,W,Si,2,4,0.66,0.4,cubic,0,3.618,3.618,3.618,90,90,90,0,-0.9,1.598,0.751,9.471,1.663
WSmO3,W,Sm,3,3,0.66,0.96,cubic,0,4.374,4.374,4.374,90,90,90,0,-0.595,2.235,0.599,16.731,-10.65
WSnO3,W,Sn,2,4,0.66,0.69,orthorhombic,3,5.535,6.462,6.748,90,90,90,0,-1.618,0.339,0,12.066,0.587
WSrO3,W,Sr,4,2,0.66,1.18,rhombohedral,2,6.037,6.037,6.037,63.1,63.1,63.1,1.361,-2.413,0.332,0,16.614,-16.873
WTaO3,W,Ta,3,3,0.66,0.72,cubic,0,3.997,3.997,3.997,90,90,90,0,-1.092,1.425,0.874,12.773,0.735
WTbO3,W,Tb,3,3,0.66,0.92,cubic,0,4.28,4.28,4.28,90,90,90,0,-0.659,2.1,0.599,15.686,-9.392
WTiO3,W,Ti,2,4,0.66,0.61,cubic,0,3.856,3.856,3.856,90,90,90,0,-1.268,1.33,0.719,11.466,-3.038
WTlO3,W,Tl,3,3,0.66,0.89,orthorhombic,3,5.342,6.559,10.281,90,90,90,0,-1.74,0.217,-0.001,18.012,-13.345
WTmO3,W,Tm,3,3,0.66,0.88,cubic,0,4.176,4.176,4.176,90,90,90,0,-0.997,1.949,0.6,14.566,-7.907
WUO3,W,U,3,3,0.66,1.03,cubic,0,4.323,4.323,4.323,90,90,90,0,-1.234,1.711,1.184,16.159,1.857
WVO3,W,V,3,3,0.66,0.64,cubic,0,3.817,3.817,3.817,90,90,90,0,-0.867,1.445,1,11.122,-3.895
W2O3,W,W,3,3,0.66,0.66,cubic,0,3.946,3.946,3.946,90,90,90,0,-0.532,1.427,0.835,12.289,-2.362
WYO3,W,Y,3,3,0.66,0.9,cubic,0,4.255,4.255,4.255,90,90,90,0,-0.818,2.149,0.599,15.402,-9.024
WYbO3,W,Yb,3,3,0.66,0.87,rhombohedral,2,5.95,5.95,5.95,59.3,59.3,59.3,0.685,-2.5,0.234,0.001,14.644,-13.326
WZnO3,W,Zn,4,2,0.66,0.74,cubic,0,3.777,3.777,3.777,90,90,90,0,-0.138,1.833,0.488,10.775,-6.731
WZrO3,W,Zr,3,3,0.66,0.72,cubic,0,4.117,4.117,4.117,90,90,90,0,-1.272,1.561,0.8,13.954,-4.009
YAgO3,Y,Ag,3,3,1.08,0.75,cubic,0,4.023,4.023,4.023,90,90,90,0,-1.43,0.587,0,13.023,-0.506
YAlO3,Y,Al,3,3,1.08,0.54,orthorhombic,3,5.188,5.347,7.394,90,90,90,5.872,-3.56,-0.023,0,10.255,6.272
YAsO3,Y,As,3,3,1.08,0.58,cubic,0,3.992,3.992,3.992,90,90,90,0,-1.911,0.751,0,12.728,2.181
YBO3,Y,B,3,3,1.08,0.27,cubic,0,3.463,3.463,3.463,90,90,90,2.953,-2.487,0.88,0,8.307,5.345
YBiO3,Y,Bi,3,3,1.08,1.03,cubic,0,4.362,4.362,4.362,90,90,90,0,-1.539,1.102,0,16.599,0.981
YCeO3,Y,Ce,3,3,1.08,1.01,cubic,0,4.536,4.536,4.536,90,90,90,0.389,-2.323,1.342,0,18.662,-2.979
YCoO3,Y,Co,3,3,1.08,0.61,orthorhombic,3,5.193,5.572,7.429,90,90,90,0,-2.508,0.023,0.4,10.749,-
YCrO3,Y,Cr,3,3,1.08,0.62,orthorhombic,3,5.281,5.578,7.6,90,90,90,2.6,-3.178,-0.033,0.6,11.195,4.248
YCuO3,Y,Cu,3,3,1.08,0.54,orthorhombic,3,5.237,5.899,7.174,90,90,90,0.374,-2.259,0.048,0,11.081,0.702
YDyO3,Y,Dy,3,3,1.08,0.91,cubic,0,4.263,4.263,4.263,90,90,90,1.445,-2.911,0.918,0,15.491,1.026
YErO3,Y,Er,3,3,1.08,0.89,cubic,0,4.219,4.219,4.219,90,90,90,1.895,-3.01,0.842,0,15.017,1.808
YEuO3,Y,Eu,3,3,1.08,0.95,cubic,0,4.256,4.256,4.256,90,90,90,0,-2.141,1.122,0.107,15.424,-2.293
YFeO3,Y,Fe,3,3,1.08,0.65,orthorhombic,3,5.298,5.607,7.627,90,90,90,1.153,-2.758,-0.029,1,11.329,3.19
YGaO3,Y,Ga,3,3,1.08,0.62,orthorhombic,3,5.277,5.565,7.569,90,90,90,4.139,-2.946,0.024,0,11.113,4.486
YGdO3,Y,Gd,3,3,1.08,0.94,cubic,0,4.317,4.317,4.317,90,90,90,1.371,-2.798,1.002,0,16.091,0.203
YGeO3,Y,Ge,3,3,1.08,0.63,cubic,0,3.871,3.871,3.871,90,90,90,0,-2.218,0.604,0,11.598,2.86
YHfO3,Y,Hf,3,3,1.08,0.71,orthorhombic,3,5.464,6.051,7.548,90,90,90,0,-3.428,0.204,0.001,12.477,4.711
YHoO3,Y,Ho,3,3,1.08,0.9,cubic,0,4.24,4.24,4.24,90,90,90,1.662,-2.963,0.878,0,15.248,1.406
YInO3,Y,In,3,3,1.08,0.8,cubic,0,4.021,4.021,4.021,90,90,90,1.415,-2.108,0.718,0,13.003,-
YIrO3,Y,Ir,1,5,1.08,0.57,cubic,0,3.954,3.954,3.954,90,90,90,0,-1.644,0.739,0,12.365,-0.776
YLaO3,Y,La,3,3,1.08,1.03,cubic,0,4.516,4.516,4.516,90,90,90,0.387,-2.446,1.315,0,18.419,-2.941
YLuO3,Y,Lu,3,3,1.08,0.86,cubic,0,4.154,4.154,4.154,90,90,90,2.052,-3.151,0.734,0,14.331,2.879
YMnO3,Y,Mn,3,3,1.08,0.65,orthorhombic,3,5.293,5.739,7.493,90,90,90,0.379,-2.936,0.023,0.8,11.38,3.468
YMoO3,Y,Mo,3,3,1.08,0.69,cubic,0,3.956,3.956,3.956,90,90,90,0,-2.285,0.618,0.006,12.384,1.87
YNbO3,Y,Nb,1,5,1.08,0.64,cubic,0,4.027,4.027,4.027,90,90,90,0,-2.615,0.577,0,13.062,3.287
YNdO3,Y,Nd,3,3,1.08,0.98,cubic,0,4.454,4.454,4.454,90,90,90,0.825,-2.502,1.212,0,17.67,-1.797
YNiO3,Y,Ni,3,3,1.08,0.6,orthorhombic,3,5.182,5.523,7.409,90,90,90,0,-2.381,0.02,0.2,10.601,1.035
YPrO3,Y,Pr,3,3,1.08,0.99,cubic,0,4.493,4.493,4.493,90,90,90,0.619,-2.419,1.273,0,18.136,-2.36
YReO3,Y,Re,1,5,1.08,0.58,cubic,0,3.947,3.947,3.947,90,90,90,0,-1.911,0.761,0.161,12.3,0.414
YRhO3,Y,Rh,3,3,1.08,0.67,cubic,0,3.919,3.919,3.919,90,90,90,0,-1.848,0.523,0,12.035,-0.064
YRuO3,Y,Ru,1,5,1.08,0.57,cubic,0,3.917,3.917,3.917,90,90,90,0,-1.904,0.57,0.137,12.018,0.774
YSbO3,Y,Sb,3,3,1.08,0.76,cubic,0,4.204,4.204,4.204,90,90,90,0,-1.756,0.965,0,14.858,1.154
YScO3,Y,Sc,3,3,1.08,0.75,orthorhombic,3,5.43,5.721,7.901,90,90,90,4.661,-3.781,0.027,0,12.271,5.013
YSiO3,Y,Si,3,3,1.08,0.4,cubic,0,3.686,3.686,3.686,90,90,90,0,-2.643,0.718,0,10.014,4.666
YSmO3,Y,Sm,3,3,1.08,0.96,cubic,0,4.386,4.386,4.386,90,90,90,1.24,-2.647,1.108,0,16.879,-0.803
YSnO3,Y,Sn,3,3,1.08,0.69,cubic,0,4.102,4.102,4.102,90,90,90,0,-2.029,0.804,0.002,13.8,2.368
YTaO3,Y,Ta,1,5,1.08,0.64,cubic,0,4.005,4.005,4.005,90,90,90,0,-2.696,0.609,0.001,12.848,3.345
YTbO3,Y,Tb,3,3,1.08,0.92,cubic,0,4.291,4.291,4.291,90,90,90,1.658,-2.726,0.958,0,15.798,0.631
YTiO3,Y,Ti,3,3,1.08,0.67,orthorhombic,3,5.309,5.676,7.645,90,90,90,0,-3.44,0.039,0.2,11.518,4.77
YTlO3,Y,Tl,3,3,1.08,0.89,orthorhombic,3,5.576,5.93,8.549,90,90,90,1.097,-2.265,0.108,0,14.133,0.61
YTmO3,Y,Tm,3,3,1.08,0.88,cubic,0,4.192,4.192,4.192,90,90,90,1.869,-3.07,0.8,0,14.729,2.191
YUO3,Y,U,1,5,1.08,0.76,cubic,0,4.374,4.374,4.374,90,90,90,0,-2.59,1.033,0.566,16.738,2.281
YVO3,Y,V,3,3,1.08,0.64,orthorhombic,3,5.313,5.703,7.605,90,90,90,1.489,-3.25,-0.031,0.4,11.521,3.984
YWO3,Y,W,1,5,1.08,0.62,cubic,0,3.962,3.962,3.962,90,90,90,0,-2.211,0.757,0.001,12.44,1.435
Y2O3,Y,Y,3,3,1.08,0.9,cubic,0,4.264,4.264,4.264,90,90,90,1.751,-2.888,0.92,0,15.51,1.075
YYbO3,Y,Yb,3,3,1.08,0.87,cubic,0,4.102,4.102,4.102,90,90,90,0,-2.389,0.919,-0.158,13.809,-1.872
YZrO3,Y,Zr,3,3,1.08,0.72,cubic,0,4.126,4.126,4.126,90,90,90,0,-2.982,0.567,0,14.046,4.354
YbAgO3,Yb,Ag,3,3,1.04,0.75,orthorhombic,3,5.42,5.804,7.605,90,90,90,0,-1.503,0.013,-,11.962,-1.121
YbAlO3,Yb,Al,3,3,1.04,0.54,cubic,0,3.674,3.674,3.674,90,90,90,0,-3.047,-0.011,-,9.918,0.315
YbAsO3,Yb,As,3,3,1.04,0.58,orthorhombic,3,5.322,5.518,7.625,90,90,90,0,-2.279,0.023,-,11.197,2.19
YbBO3,Yb,B,3,3,1.04,0.27,cubic,0,3.394,3.394,3.394,90,90,90,0,-2.127,0.623,-,7.821,-0.92
YbBiO3,Yb,Bi,3,3,1.04,1.03,orthorhombic,3,5.683,5.989,8.256,90,90,90,0,-2.221,-0.037,-,14.051,1.166
YbCeO3,Yb,Ce,2,4,1.14,0.87,cubic,0,4.484,4.484,4.484,90,90,90,0,-2.379,0.784,0.2,18.026,-1.777
YbCoO3,Yb,Co,3,3,1.04,0.61,orthorhombic,3,5.137,5.342,7.396,90,90,90,0,-2.109,-0.079,0.592,10.148,-
YbCrO3,Yb,Cr,3,3,1.04,0.62,orthorhombic,3,5.191,5.406,7.389,90,90,90,0.578,-2.789,-0.024,0.4,10.367,1.718
YbCuO3,Yb,Cu,3,3,1.04,0.54,orthorhombic,3,5.178,5.302,7.368,90,90,90,0,-1.752,0.118,-,10.113,-0.353
YbDyO3,Yb,Dy,3,3,1.04,0.91,cubic,0,4.257,4.257,4.257,90,90,90,0,-2.759,0.569,0.199,15.427,-1.456
YbErO3,Yb,Er,3,3,1.04,0.89,cubic,0,4.214,4.214,4.214,90,90,90,0,-2.823,0.529,0.2,14.966,-1.373
YbEuO3,Yb,Eu,3,3,1.04,0.95,cubic,0,4.172,4.172,4.172,90,90,90,0,-2.033,0.728,0.001,14.521,-1.672
YbFeO3,Yb,Fe,3,3,1.04,0.65,orthorhombic,3,5.221,5.341,7.429,90,90,90,0,-2.384,-0.123,0.799,10.36,1.336
YbGaO3,Yb,Ga,3,3,1.04,0.62,orthorhombic,3,5.21,5.548,7.485,90,90,90,0,-2.373,0.08,-,10.817,-0.847
YbGdO3,Yb,Gd,3,3,1.04,0.94,cubic,0,4.302,4.302,4.302,90,90,90,0,-2.686,0.614,0.2,15.92,-1.511
YbGeO3,Yb,Ge,2,4,1.14,0.53,orthorhombic,3,5.201,5.289,7.404,90,90,90,2.697,-2.688,-0.098,-,10.184,4.023
YbHfO3,Yb,Hf,2,4,1.14,0.71,orthorhombic,3,5.481,5.69,7.881,90,90,90,4.701,-3.816,-0.109,0,12.29,6.42
YbHoO3,Yb,Ho,3,3,1.04,0.9,cubic,0,4.232,4.232,4.232,90,90,90,0,-2.792,0.548,0.2,15.159,-1.429
YbInO3,Yb,In,3,3,1.04,0.8,orthorhombic,3,5.696,5.973,7.488,90,90,90,0,-2.189,0.136,-,12.736,-1.399
YbIrO3,Yb,Ir,2,4,1.14,0.63,orthorhombic,3,5.168,5.7,7.55,90,90,90,0,-2.106,-0.064,0.048,11.119,0.609
YbLaO3,Yb,La,3,3,1.04,1.03,cubic,0,4.446,4.446,4.446,90,90,90,0,-2.533,0.727,0.189,17.574,-1.381
YbLuO3,Yb,Lu,3,3,1.04,0.86,orthorhombic,3,5.745,5.968,7.674,90,90,90,0,-3.244,0.14,0.2,13.155,-1.221
YbMnO3,Yb,Mn,2,4,1.14,0.53,orthorhombic,3,5.193,5.322,7.398,90,90,90,0.7,-2.61,-0.078,0.6,10.224,1.429
YbMoO3,Yb,Mo,2,4,1.14,0.65,orthorhombic,3,5.329,5.605,7.685,90,90,90,0,-2.758,-0.062,0.072,11.478,4.233
YbNbO3,Yb,Nb,2,4,1.14,0.68,orthorhombic,3,5.432,5.661,7.826,90,90,90,0,-3.157,-0.122,0.003,12.034,5.047
YbNdO3,Yb,Nd,3,3,1.04,0.98,cubic,0,4.403,4.403,4.403,90,90,90,0,-2.492,0.785,0.2,17.07,-1.651
YbNiO3,Yb,Ni,3,3,1.04,0.6,orthorhombic,3,5.126,5.319,7.323,90,90,90,0,-1.873,0.027,0,9.982,-0.017
YbPbO3,Yb,Pb,2,4,1.14,0.78,orthorhombic,3,5.613,5.889,8.125,90,90,90,1.206,-2.157,0.024,-,13.428,1.197
YbPdO3,Yb,Pd,2,4,1.14,0.62,orthorhombic,3,5.239,5.65,7.579,90,90,90,0.661,-1.894,-0.101,-,11.217,-0.557
YbPrO3,Yb,Pr,2,4,1.14,0.85,cubic,0,4.44,4.44,4.44,90,90,90,0,-2.441,0.751,0.2,17.502,-1.717
YbReO3,Yb,Re,2,4,1.14,0.63,orthorhombic,3,5.266,5.624,7.62,90,90,90,0,-2.419,0.009,-0.007,11.283,2.418
YbRhO3,Yb,Rh,2,4,1.14,0.6,orthorhombic,3,5.189,5.63,7.541,90,90,90,0,-2.115,-0.089,0.2,11.016,-
YbRuO3,Yb,Ru,2,4,1.14,0.62,orthorhombic,3,5.232,5.586,7.569,90,90,90,0,-2.246,-0.083,0.346,11.06,2.043
YbSbO3,Yb,Sb,3,3,1.04,0.76,orthorhombic,3,5.543,5.83,8.016,90,90,90,0,-2.404,-0.009,-,12.953,2.452
YbScO3,Yb,Sc,3,3,1.04,0.75,orthorhombic,3,5.524,5.757,7.662,90,90,90,0,-3.209,0.098,0.2,12.182,-1.039
YbSiO3,Yb,Si,3,3,1.04,0.4,rhombohedral,2,4.996,4.996,4.996,60.3,60.3,60.3,4.854,-3.279,-0.032,-,8.867,6.309
YbSmO3,Yb,Sm,3,3,1.04,0.96,cubic,0,4.35,4.35,4.35,90,90,90,0,-2.583,0.671,0.2,16.464,-1.644
YbSnO3,Yb,Sn,2,4,1.14,0.69,orthorhombic,3,5.456,5.677,7.858,90,90,90,2.745,-2.686,-0.105,-,12.17,3.351
YbTaO3,Yb,Ta,2,4,1.14,0.68,orthorhombic,3,5.41,5.639,7.798,90,90,90,0,-3.249,-0.086,0.002,11.895,5.258
YbTbO3,Yb,Tb,2,4,1.14,0.76,cubic,0,4.281,4.281,4.281,90,90,90,0,-2.593,0.591,0.2,15.695,-1.472
YbTeO3,Yb,Te,2,4,1.14,0.97,orthorhombic,3,5.596,5.928,8.103,90,90,90,0.212,-2.163,0.145,-,13.44,2.574
YbThO3,Yb,Th,2,4,1.14,0.94,cubic,0,4.541,4.541,4.541,90,90,90,1.129,-3.229,0.716,0,18.729,4.825
YbTiO3,Yb,Ti,2,4,1.14,0.61,orthorhombic,3,5.298,5.449,7.566,90,90,90,2.364,-3.528,-0.128,0,10.921,5.064
YbTlO3,Yb,Tl,3,3,1.04,0.89,orthorhombic,3,5.603,5.994,8.038,90,90,90,0,-1.731,0.141,-,13.496,-1.324
YbTmO3,Yb,Tm,3,3,1.04,0.88,cubic,0,4.191,4.191,4.191,90,90,90,0,-2.866,0.503,0.2,14.722,-1.312
YbUO3,Yb,U,2,4,1.14,0.89,cubic,0,4.383,4.383,4.383,90,90,90,0,-3.007,0.688,0.346,16.839,4.677
YbVO3,Yb,V,2,4,1.14,0.58,orthorhombic,3,5.228,5.407,7.49,90,90,90,0.346,-3.073,0.005,0.2,10.585,3.823
YbWO3,Yb,W,2,4,1.14,0.66,orthorhombic,3,5.326,5.633,7.703,90,90,90,0,-2.734,-0.024,0.042,11.555,4.04
YbYO3,Yb,Y,3,3,1.04,0.9,cubic,0,4.267,4.267,4.267,90,90,90,0,-2.719,0.588,0.2,15.535,-1.615
Yb2O3,Yb,Yb,3,3,1.04,0.87,cubic,0,4.086,4.086,4.086,90,90,90,0,-2.123,0.684,-,13.648,-1.835
YbZrO3,Yb,Zr,2,4,1.14,0.72,orthorhombic,3,5.525,5.756,7.958,90,90,90,4.217,-3.661,-0.078,0,12.652,5.935
ZnCeO3,Zn,Ce,2,4,0.9,0.87,orthorhombic,3,5.515,5.978,8.697,90,90,90,0.626,-2.228,0.192,0.2,14.337,-4.988
ZnCoO3,Zn,Co,2,4,0.9,0.53,cubic,0,3.665,3.665,3.665,90,90,90,0,-0.659,0.627,0.501,9.843,-1.336
ZnCrO3,Zn,Cr,2,4,0.9,0.55,cubic,0,3.733,3.733,3.733,90,90,90,0,-1.335,0.618,0.398,10.405,-0.105
ZnFeO3,Zn,Fe,2,4,0.9,0.59,cubic,0,3.718,3.718,3.718,90,90,90,0,-0.97,0.562,0.798,10.281,-0.75
ZnGeO3,Zn,Ge,2,4,0.9,0.53,cubic,0,3.69,3.69,3.69,90,90,90,0,-1.247,0.586,-,10.047,1.669
ZnHfO3,Zn,Hf,2,4,0.9,0.71,cubic,0,4.048,4.048,4.048,90,90,90,0,-2.279,0.684,0,13.271,0.175
ZnIrO3,Zn,Ir,2,4,0.9,0.63,cubic,0,3.879,3.879,3.879,90,90,90,0,-0.536,0.762,0.037,11.674,0.436
ZnMnO3,Zn,Mn,2,4,0.9,0.53,cubic,0,3.707,3.707,3.707,90,90,90,0,-1.171,0.539,0.632,10.19,-0.703
ZnMoO3,Zn,Mo,2,4,0.9,0.65,orthorhombic,3,5.262,5.266,7.728,90,90,90,0,-1.746,0.221,0.4,10.706,3.816
ZnNbO3,Zn,Nb,2,4,0.9,0.68,rhombohedral,2,5.444,5.444,5.444,59.5,59.5,59.5,0,-2.159,0.165,0.186,11.277,-
ZnNiO3,Zn,Ni,2,4,0.9,0.48,cubic,0,3.662,3.662,3.662,90,90,90,0,-0.484,0.673,-0.004,9.823,-1.995
ZnPbO3,Zn,Pb,2,4,0.9,0.78,rhombohedral,2,5.778,5.778,5.778,57.3,57.3,57.3,0.218,-1.266,0.062,-,12.801,-2.514
ZnPdO3,Zn,Pd,2,4,0.9,0.62,cubic,0,3.894,3.894,3.894,90,90,90,0,-0.23,0.689,-,11.813,-1.37
ZnPrO3,Zn,Pr,2,4,0.9,0.85,orthorhombic,3,5.493,5.873,8.743,90,90,90,0.655,-2.255,0.193,0.2,14.103,-4.902
ZnReO3,Zn,Re,2,4,0.9,0.63,rhombohedral,2,5.145,5.145,5.145,63.5,63.5,63.5,0,-1.439,0.245,0,10.38,3.253
ZnRhO3,Zn,Rh,2,4,0.9,0.6,cubic,0,3.868,3.868,3.868,90,90,90,0,-0.519,0.763,0.258,11.576,-0.397
ZnRuO3,Zn,Ru,2,4,0.9,0.62,cubic,0,3.853,3.853,3.853,90,90,90,0,-0.768,0.651,0.159,11.438,1.194
ZnSbO3,Zn,Sb,2,4,0.9,0.68,cubic,0,3.982,3.982,3.982,90,90,90,0,-1.068,0.587,-,12.631,1.695
ZnSiO3,Zn,Si,2,4,0.9,0.4,cubic,0,3.511,3.511,3.511,90,90,90,0,-1.95,0.572,-,8.655,4.167
ZnSnO3,Zn,Sn,2,4,0.9,0.69,cubic,0,3.996,3.996,3.996,90,90,90,0,-1.124,0.708,-,12.764,-0.123
ZnTaO3,Zn,Ta,2,4,0.9,0.68,rhombohedral,2,5.326,5.326,5.326,61.6,61.6,61.6,0,-2.258,0.272,0.004,11.069,-
ZnTbO3,Zn,Tb,2,4,0.9,0.76,cubic,0,4.296,4.296,4.296,90,90,90,0,-1.307,1.133,-0.215,15.858,-4.079
ZnTeO3,Zn,Te,2,4,0.9,0.97,cubic,0,4.074,4.074,4.074,90,90,90,0,-0.742,0.718,-,13.527,-0.011
ZnThO3,Zn,Th,2,4,0.9,0.94,cubic,0,4.513,4.513,4.513,90,90,90,0,-2.064,1.138,-0.105,18.388,-2.511
ZnTiO3,Zn,Ti,2,4,0.9,0.61,cubic,0,3.827,3.827,3.827,90,90,90,0,-2.074,0.542,0,11.208,1.342
ZnUO3,Zn,U,2,4,0.9,0.89,cubic,0,4.306,4.306,4.306,90,90,90,0,-2.342,0.609,0.114,15.963,1.935
ZnVO3,Zn,V,2,4,0.9,0.58,cubic,0,3.75,3.75,3.75,90,90,90,0,-1.646,0.515,-0.164,10.546,1.518
ZnWO3,Zn,W,2,4,0.9,0.66,rhombohedral,2,5.18,5.18,5.18,63.6,63.6,63.6,0,-1.731,0.24,0.003,10.608,4.632
ZnZrO3,Zn,Zr,2,4,0.9,0.72,cubic,0,4.108,4.108,4.108,90,90,90,0,-2.084,0.756,0.001,13.86,-0.544
ZrAlO3,Zr,Al,3,3,0.89,0.54,orthorhombic,3,5.16,5.36,7.202,90,90,90,0,-2.998,0.302,0.199,9.959,5.22
ZrAsO3,Zr,As,3,3,0.89,0.58,cubic,0,3.945,3.945,3.945,90,90,90,0,-1.202,1.46,0.267,12.281,0.094
ZrBO3,Zr,B,4,2,0.89,0.27,cubic,0,3.419,3.419,3.419,90,90,90,0,-1.921,1.162,0,7.996,4.306
ZrBeO3,Zr,Be,4,2,0.89,0.45,cubic,0,3.44,3.44,3.44,90,90,90,0.944,-2.706,0.661,0,8.145,3.63
ZrBiO3,Zr,Bi,1,5,0.89,0.76,cubic,0,4.318,4.318,4.318,90,90,90,0,-0.845,1.826,0.341,16.103,-1.949
ZrCoO3,Zr,Co,3,3,0.89,0.61,cubic,0,3.655,3.655,3.655,90,90,90,0,-1.774,0.903,-0.116,9.764,1.235
ZrCrO3,Zr,Cr,1,5,0.89,0.49,cubic,0,3.78,3.78,3.78,90,90,90,0,-2.191,0.816,0.502,10.805,2.431
ZrCuO3,Zr,Cu,3,3,0.89,0.54,cubic,0,3.698,3.698,3.698,90,90,90,0,-1.531,0.971,0,10.115,-0.039
ZrFeO3,Zr,Fe,3,3,0.89,0.65,cubic,0,3.791,3.791,3.791,90,90,90,0,-1.766,1.022,0.866,10.898,1.3
ZrGaO3,Zr,Ga,3,3,0.89,0.62,cubic,0,3.769,3.769,3.769,90,90,90,0,-1.978,0.902,0.008,10.708,2.65
ZrGeO3,Zr,Ge,2,4,0.89,0.53,cubic,0,3.818,3.818,3.818,90,90,90,0,-1.553,1.206,0.272,11.129,1.155
ZrIrO3,Zr,Ir,1,5,0.89,0.57,cubic,0,3.92,3.92,3.92,90,90,90,0,-0.972,1.527,0.01,12.049,-2.228
ZrMnO3,Zr,Mn,3,3,0.89,0.65,cubic,0,3.796,3.796,3.796,90,90,90,0,-1.956,1.039,0.718,10.942,1.759
ZrMoO3,Zr,Mo,1,5,0.89,0.61,cubic,0,3.927,3.927,3.927,90,90,90,0,-1.674,1.152,0.283,12.107,0.236
ZrNbO3,Zr,Nb,1,5,0.89,0.64,cubic,0,4.006,4.006,4.006,90,90,90,0,-2.02,1.021,0.337,12.861,1.704
ZrNiO3,Zr,Ni,3,3,0.89,0.6,cubic,0,3.684,3.684,3.684,90,90,90,0,-1.735,0.941,0.34,9.999,0.886
ZrReO3,Zr,Re,1,5,0.89,0.58,cubic,0,3.912,3.912,3.912,90,90,90,0,-1.308,1.385,0.209,11.976,-0.946
ZrRhO3,Zr,Rh,3,3,0.89,0.67,cubic,0,3.887,3.887,3.887,90,90,90,0,-1.202,1.289,0.001,11.744,-1.402
ZrRuO3,Zr,Ru,1,5,0.89,0.57,cubic,0,3.874,3.874,3.874,90,90,90,0,-1.281,1.279,0,11.625,-1.215
ZrSbO3,Zr,Sb,1,5,0.89,0.6,cubic,0,4.144,4.144,4.144,90,90,90,0,-1.109,1.597,0.389,14.235,-2.002
ZrSiO3,Zr,Si,2,4,0.89,0.4,cubic,0,3.628,3.628,3.628,90,90,90,0,-2.058,1.074,0.247,9.55,2.891
ZrTaO3,Zr,Ta,1,5,0.89,0.64,cubic,0,3.988,3.988,3.988,90,90,90,0,-2.14,0.916,0.369,12.683,2.082
ZrTiO3,Zr,Ti,2,4,0.89,0.61,cubic,0,3.84,3.84,3.84,90,90,90,0,-2.535,0.742,0.178,11.325,2.821
ZrUO3,Zr,U,1,5,0.89,0.76,orthorhombic,3,6.103,6.358,7.481,90,90,90,0,-3.052,0.348,0.644,14.514,-1.56
ZrVO3,Zr,V,1,5,0.89,0.54,cubic,0,3.814,3.814,3.814,90,90,90,0,-2.208,0.876,0.543,11.093,2.395
ZrWO3,Zr,W,1,5,0.89,0.62,cubic,0,3.936,3.936,3.936,90,90,90,0,-1.637,1.196,0.339,12.2,0.191