Chemical formula,A,B,Valence A,Valence B,Radius A [ang],Radius B [ang],Crystal Type,Crystal Type,a [ang],b [ang],c [ang],alpha [deg],beta [deg],gamma [deg],Band gap [eV],Formation energy [eV/atom],Stability [eV/atom],Magnetic moment [mu_B],Volume per atom [A^3/atom],Vacancy energy [eV/O atom]
AgAsO3,Ag,As,1,5,1.28,0.46,tetragonal,1,3.571,3.571,4.458,90,90,90,0,-0.815,0.293,-,11.367,0.529
AgBO3,Ag,B,3,3,0.75,0.27,cubic,0,3.439,3.439,3.439,90,90,90,0,-0.35,1.074,-,8.138,-2.641
AgBiO3,Ag,Bi,1,5,1.28,0.76,rhombohedral,2,5.765,5.765,5.765,60.4,60.4,60.4,0,-0.817,0.064,-,13.662,-0.062
AgCrO3,Ag,Cr,1,5,1.28,0.49,orthorhombic,3,5.357,5.401,7.29,90,90,90,0,-1.236,0.15,0.386,10.545,0.037
AgIrO3,Ag,Ir,1,5,1.28,0.57,rhombohedral,2,5.367,5.367,5.367,61.6,61.6,61.6,0,-0.591,0.154,0.007,11.313,1.233
AgMoO3,Ag,Mo,1,5,1.28,0.61,cubic,0,3.911,3.911,3.911,90,90,90,0,-1.548,0.182,0,11.963,4.381
AgNbO3,Ag,Nb,1,5,1.28,0.64,rhombohedral,2,5.611,5.611,5.611,59.2,59.2,59.2,1.269,-2.009,0.043,0,12.263,4.672
AgReO3,Ag,Re,1,5,1.28,0.58,cubic,0,3.889,3.889,3.889,90,90,90,0,-1.22,0.301,0,11.768,4.367
AgRuO3,Ag,Ru,1,5,1.28,0.57,rhombohedral,2,5.375,5.375,5.375,60.7,60.7,60.7,0,-0.754,0.112,0.1,11.148,1.891
AgSbO3,Ag,Sb,1,5,1.28,0.6,orthorhombic,3,5.539,5.591,7.848,90,90,90,0,-1.157,0.109,-,12.152,2.278
AgTaO3,Ag,Ta,1,5,1.28,0.64,rhombohedral,2,5.584,5.584,5.584,59.3,59.3,59.3,2.03,-2.247,0.018,0,12.114,5.586
AgUO3,Ag,U,1,5,1.28,0.76,rhombohedral,2,6.032,6.032,6.032,57.7,57.7,57.7,2.636,-2.513,-0.009,0.2,14.714,3.748
AgVO3,Ag,V,1,5,1.28,0.54,tetragonal,1,3.684,3.684,4.208,90,90,90,0.341,-1.582,0.125,0,11.419,1.832
AgWO3,Ag,W,1,5,1.28,0.62,cubic,0,3.917,3.917,3.917,90,90,90,0,-1.675,0.281,0,12.02,5.198
AlAgO3,Al,Ag,3,3,0.54,0.75,orthorhombic,3,4.913,5.222,8.588,90,90,90,0,-1.543,0.203,-,11.015,-5.981
Al2O3,Al,Al,3,3,0.54,0.54,cubic,0,3.591,3.591,3.591,90,90,90,0,-2.079,1.186,-,9.258,-0.978
AlAsO3,Al,As,3,3,0.54,0.58,cubic,0,3.814,3.814,3.814,90,90,90,0,-0.946,1.409,-,11.095,1.18
AlBO3,Al,B,3,3,0.54,0.27,cubic,0,3.283,3.283,3.283,90,90,90,0,-1.37,1.613,-,7.079,0.694
AlCeO3,Al,Ce,3,3,0.54,1.01,orthorhombic,3,5.557,5.574,8.786,90,90,90,2.937,-3.19,0.289,0,13.608,-7.106
AlCoO3,Al,Co,3,3,0.54,0.61,cubic,0,3.604,3.604,3.604,90,90,90,0,-0.957,1.302,0.005,9.363,-1.991
AlCrO3,Al,Cr,3,3,0.54,0.62,cubic,0,3.745,3.745,3.745,90,90,90,0,-1.534,1.339,0.541,10.504,-1.25
AlCuO3,Al,Cu,3,3,0.54,0.54,cubic,0,3.641,3.641,3.641,90,90,90,0,-0.668,1.286,-,9.652,-3.853
AlDyO3,Al,Dy,3,3,0.54,0.91,rhombohedral,2,5.993,5.993,5.993,54.1,54.1,54.1,3.763,-3.343,0.244,0,13.125,-6.424
AlErO3,Al,Er,3,3,0.54,0.89,orthorhombic,3,5.328,5.337,8.281,90,90,90,3.077,-3.36,0.242,0,11.774,-6.199
AlEuO3,Al,Eu,3,3,0.54,0.95,orthorhombic,3,5.134,5.797,8.578,90,90,90,0.226,-2.925,0.18,0,12.765,-8.901
AlFeO3,Al,Fe,3,3,0.54,0.65,cubic,0,3.744,3.744,3.744,90,90,90,0,-1.125,1.332,0.853,10.496,-2.445
AlGaO3,Al,Ga,3,3,0.54,0.62,cubic,0,3.74,3.74,3.74,90,90,90,0,-1.246,1.437,-,10.465,-3.306
AlGdO3,Al,Gd,3,3,0.54,0.94,rhombohedral,2,6.086,6.086,6.086,53.8,53.8,53.8,3.807,-3.316,0.253,0,13.622,-6.621
AlHfO3,Al,Hf,3,3,0.54,0.71,cubic,0,4.056,4.056,4.056,90,90,90,0,-2.376,1.031,0,13.345,-0.122
AlHoO3,Al,Ho,3,3,0.54,0.9,rhombohedral,2,5.966,5.966,5.966,54.1,54.1,54.1,3.715,-3.357,0.238,0,12.949,-6.308
AlInO3,Al,In,3,3,0.54,0.8,orthorhombic,3,5.22,5.226,8.141,90,90,90,1.524,-2.354,0.201,-,11.102,-5.702
AlIrO3,Al,Ir,3,3,0.54,0.68,cubic,0,3.901,3.901,3.901,90,90,90,0,-0.63,1.482,0.046,11.877,0.139
AlLaO3,Al,La,3,3,0.54,1.03,orthorhombic,3,5.461,5.529,9.137,90,90,90,3.69,-3.335,0.226,0,13.793,-6.662
AlLuO3,Al,Lu,3,3,0.54,0.86,rhombohedral,2,5.786,5.786,5.786,55.1,55.1,55.1,3.815,-3.397,0.225,0,12.134,-5.759
AlMnO3,Al,Mn,3,3,0.54,0.65,cubic,0,3.735,3.735,3.735,90,90,90,0,-1.359,1.282,0.69,10.42,-2.158
AlMoO3,Al,Mo,3,3,0.54,0.69,cubic,0,3.935,3.935,3.935,90,90,90,0,-1.574,1.028,0,12.186,3.998
AlNbO3,Al,Nb,3,3,0.54,0.72,cubic,0,4.021,4.021,4.021,90,90,90,0,-1.999,0.882,-0.001,13.005,4.777
AlNdO3,Al,Nd,3,3,0.54,0.98,orthorhombic,3,5.495,5.509,8.66,90,90,90,3.042,-3.233,0.28,0,13.108,-7.031
AlNiO3,Al,Ni,3,3,0.54,0.6,cubic,0,3.613,3.613,3.613,90,90,90,0,-0.821,1.308,0.177,9.43,-3.057
AlPdO3,Al,Pd,3,3,0.54,0.76,cubic,0,3.897,3.897,3.897,90,90,90,0,-0.438,1.454,-,11.84,-3.303
AlPrO3,Al,Pr,3,3,0.54,0.99,orthorhombic,3,5.529,5.537,8.72,90,90,90,2.935,-3.213,0.286,0,13.347,-7.082
AlReO3,Al,Re,3,3,0.54,0.63,cubic,0,3.912,3.912,3.912,90,90,90,0,-1.244,1.157,0,11.971,3.045
AlRhO3,Al,Rh,3,3,0.54,0.67,cubic,0,3.872,3.872,3.872,90,90,90,0,-0.666,1.433,0.082,11.614,-2.563
AlRuO3,Al,Ru,3,3,0.54,0.68,cubic,0,3.87,3.87,3.87,90,90,90,0,-0.871,1.331,0.212,11.596,0.576
AlSbO3,Al,Sb,3,3,0.54,0.76,cubic,0,4.019,4.019,4.019,90,90,90,0,-1.11,1.312,-,12.983,1.822
AlScO3,Al,Sc,3,3,0.54,0.75,cubic,0,3.974,3.974,3.974,90,90,90,0,-1.867,1.669,-0.012,12.556,-4.725
AlSmO3,Al,Sm,3,3,0.54,0.96,orthorhombic,3,5.45,5.462,8.551,90,90,90,3.072,-3.267,0.27,0,12.728,-6.818
AlTaO3,Al,Ta,3,3,0.54,0.72,cubic,0,4.002,4.002,4.002,90,90,90,0,-2.219,0.753,0,12.82,5.56
AlTbO3,Al,Tb,3,3,0.54,0.92,rhombohedral,2,6.025,6.025,6.025,54,54,54,3.738,-3.197,0.251,0,13.312,-6.525
AlTiO3,Al,Ti,3,3,0.54,0.67,cubic,0,3.841,3.841,3.841,90,90,90,0,-2.161,1.032,0,11.337,0.011
AlTlO3,Al,Tl,3,3,0.54,0.89,orthorhombic,3,5.285,5.41,8.5,90,90,90,0.638,-1.911,0.19,-,12.152,-6.702
AlTmO3,Al,Tm,3,3,0.54,0.88,rhombohedral,2,5.828,5.828,5.828,55.1,55.1,55.1,3.756,-3.378,0.237,0,12.404,-6.024
AlUO3,Al,U,3,3,0.54,1.03,orthorhombic,3,5.72,5.961,8.125,90,90,90,0,-2.94,0.452,0.567,13.853,2.358
AlVO3,Al,V,3,3,0.54,0.64,orthorhombic,3,5.004,5.03,7.636,90,90,90,1.47,-2.799,0.149,0.4,9.609,-0.475
AlWO3,Al,W,3,3,0.54,0.66,cubic,0,3.941,3.941,3.941,90,90,90,0,-1.67,0.951,0,12.242,4.827
AlYO3,Al,Y,3,3,0.54,0.9,rhombohedral,2,6.003,6.003,6.003,54.1,54.1,54.1,3.81,-3.324,0.236,0,13.18,-6.49
AlYbO3,Al,Yb,3,3,0.54,0.87,orthorhombic,3,5.119,5.58,8.294,90,90,90,0,-2.923,0.124,-,11.845,-7.558
AlZrO3,Al,Zr,3,3,0.54,0.72,cubic,0,4.115,4.115,4.115,90,90,90,0,-2.183,1.117,0,13.936,-1.156
AsAgO3,As,Ag,3,3,0.58,0.75,cubic,0,3.993,3.993,3.993,90,90,90,0,0.229,1.337,-,12.735,-3.674
AsAlO3,As,Al,3,3,0.58,0.54,cubic,0,3.653,3.653,3.653,90,90,90,0,-1.712,0.644,-,9.746,1.583
As2O3,As,As,3,3,0.58,0.58,cubic,0,3.854,3.854,3.854,90,90,90,0,-0.521,0.925,-,11.453,1.088
AsBO3,As,B,3,3,0.58,0.27,cubic,0,3.377,3.377,3.377,90,90,90,0.923,-0.852,1.183,-,7.706,2.629
AsCeO3,As,Ce,2,4,0.58,0.87,cubic,0,4.505,4.505,4.505,90,90,90,0,-0.902,1.665,0.021,18.283,-7.219
AsCoO3,As,Co,3,3,0.58,0.61,cubic,0,3.659,3.659,3.659,90,90,90,0,-0.584,0.82,-0.004,9.799,0.089
AsCrO3,As,Cr,3,3,0.58,0.62,cubic,0,3.792,3.792,3.792,90,90,90,0,-1.192,0.772,0.591,10.907,0.789
AsCuO3,As,Cu,3,3,0.58,0.54,cubic,0,3.702,3.702,3.702,90,90,90,0,-0.301,0.881,-,10.145,-0.831
AsDyO3,As,Dy,3,3,0.58,0.91,cubic,0,4.283,4.283,4.283,90,90,90,0,-1.302,1.387,0.038,15.714,-5.336
AsErO3,As,Er,3,3,0.58,0.89,cubic,0,4.241,4.241,4.241,90,90,90,0,-1.376,1.295,0.014,15.254,-4.874
AsEuO3,As,Eu,3,3,0.58,0.95,orthorhombic,3,5.528,5.937,8.683,90,90,90,0,-2.292,0.022,0,14.25,-8.456
AsFeO3,As,Fe,3,3,0.58,0.65,cubic,0,3.798,3.798,3.798,90,90,90,0,-0.747,0.805,0.911,10.955,-0.724
AsGaO3,As,Ga,3,3,0.58,0.62,cubic,0,3.782,3.782,3.782,90,90,90,0,-0.941,0.832,-,10.821,-0.391
AsGdO3,As,Gd,3,3,0.58,0.94,cubic,0,4.332,4.332,4.332,90,90,90,0,-1.22,1.399,-0.001,16.257,-5.81
AsGeO3,As,Ge,2,4,0.58,0.53,cubic,0,3.757,3.757,3.757,90,90,90,0,-0.909,0.707,-,10.602,1.493
AsHfO3,As,Hf,2,4,0.58,0.71,cubic,0,4.068,4.068,4.068,90,90,90,0,-2.012,0.773,-0.001,13.462,0.248
AsHoO3,As,Ho,3,3,0.58,0.9,cubic,0,4.261,4.261,4.261,90,90,90,0,-1.34,1.356,0.016,15.474,-5.112
AsInO3,As,In,3,3,0.58,0.8,cubic,0,4.09,4.09,4.09,90,90,90,0,-0.473,1.172,-,13.685,-3.437
AsIrO3,As,Ir,2,4,0.58,0.63,cubic,0,3.907,3.907,3.907,90,90,90,0,-0.244,0.958,-0.028,11.93,0.02
AsLaO3,As,La,3,3,0.58,1.03,cubic,0,4.472,4.472,4.472,90,90,90,0,-1.048,1.603,-0.002,17.892,-6.72
AsLuO3,As,Lu,3,3,0.58,0.86,cubic,0,4.173,4.173,4.173,90,90,90,0,-1.487,1.231,0,14.534,-4.14
AsMnO3,As,Mn,2,4,0.58,0.53,cubic,0,3.787,3.787,3.787,90,90,90,0,-0.981,0.783,0.734,10.859,-0.345
AsMoO3,As,Mo,2,4,0.58,0.65,cubic,0,3.932,3.932,3.932,90,90,90,0,-1.092,0.683,0.003,12.158,3.029
AsNbO3,As,Nb,2,4,0.58,0.68,cubic,0,4.013,4.013,4.013,90,90,90,0,-1.53,0.693,0,12.927,2.989
AsNdO3,As,Nd,3,3,0.58,0.98,cubic,0,4.45,4.45,4.45,90,90,90,0,-1.017,1.601,0.015,17.618,-6.772
AsNiO3,As,Ni,3,3,0.58,0.6,cubic,0,3.675,3.675,3.675,90,90,90,0,-0.451,0.973,0.203,9.927,-0.981
AsPbO3,As,Pb,2,4,0.58,0.78,orthorhombic,3,5.617,6.321,8.378,90,90,90,0,-1.311,0.217,-,14.871,-3.677
AsPdO3,As,Pd,2,4,0.58,0.62,cubic,0,3.924,3.924,3.924,90,90,90,0,-0.095,1.001,-,12.088,-0.714
AsPrO3,As,Pr,2,4,0.58,0.85,cubic,0,4.484,4.484,4.484,90,90,90,0,-0.966,1.545,0.008,18.032,-6.972
AsReO3,As,Re,2,4,0.58,0.63,cubic,0,3.906,3.906,3.906,90,90,90,0,-0.759,0.761,0.05,11.923,1.826
AsRhO3,As,Rh,3,3,0.58,0.67,cubic,0,3.887,3.887,3.887,90,90,90,0,-0.309,0.884,0.001,11.747,0.027
AsRuO3,As,Ru,2,4,0.58,0.62,cubic,0,3.885,3.885,3.885,90,90,90,0,-0.462,0.831,0.248,11.724,0.888
AsSbO3,As,Sb,2,4,0.58,0.68,cubic,0,4.031,4.031,4.031,90,90,90,0,-0.677,0.847,-,13.103,1.237
AsScO3,As,Sc,3,3,0.58,0.75,cubic,0,3.996,3.996,3.996,90,90,90,0,-1.592,1.035,0,12.761,-2.666
AsSiO3,As,Si,2,4,0.58,0.4,cubic,0,3.585,3.585,3.585,90,90,90,0,-1.501,0.825,-,9.218,3.579
AsSmO3,As,Sm,3,3,0.58,0.96,cubic,0,4.394,4.394,4.394,90,90,90,0,-1.116,1.531,0.092,16.964,-6.305
AsSnO3,As,Sn,2,4,0.58,0.69,cubic,0,4.021,4.021,4.021,90,90,90,0,-0.849,0.805,-,13.003,2.506
AsTaO3,As,Ta,2,4,0.58,0.68,cubic,0,3.992,3.992,3.992,90,90,90,0,-1.738,0.694,0,12.721,3.72
AsTbO3,As,Tb,2,4,0.58,0.76,cubic,0,4.307,4.307,4.307,90,90,90,0,-1.131,1.419,0.046,15.982,-5.57
AsTeO3,As,Te,2,4,0.58,0.97,cubic,0,4.129,4.129,4.129,90,90,90,0,-0.364,0.944,-,14.078,-0.54
AsThO3,As,Th,2,4,0.58,0.94,cubic,0,4.539,4.539,4.539,90,90,90,0,-1.795,1.229,0.003,18.699,-3.355
AsTiO3,As,Ti,2,4,0.58,0.61,cubic,0,3.865,3.865,3.865,90,90,90,0,-1.759,0.669,0.001,11.551,0.658
AsTlO3,As,Tl,3,3,0.58,0.89,cubic,0,4.195,4.195,4.195,90,90,90,0,0.134,1.446,-,14.762,-5.074
AsTmO3,As,Tm,3,3,0.58,0.88,cubic,0,4.213,4.213,4.213,90,90,90,0,-1.424,1.265,0.01,14.96,-4.583
AsUO3,As,U,2,4,0.58,0.89,cubic,0,4.318,4.318,4.318,90,90,90,0,-1.957,0.817,0.04,16.096,2.774
AsVO3,As,V,2,4,0.58,0.58,cubic,0,3.805,3.805,3.805,90,90,90,0,-1.241,0.797,-0.004,11.019,-0.112
AsWO3,As,W,3,3,0.58,0.66,cubic,0,3.935,3.935,3.935,90,90,90,0,-1.18,0.776,0,12.189,3.385
AsYO3,As,Y,3,3,0.58,0.9,cubic,0,4.289,4.289,4.289,90,90,90,0,-1.275,1.387,0.015,15.785,-5.326
AsYbO3,As,Yb,3,3,0.58,0.87,orthorhombic,0,5.405,5.88,8.406,90,90,90,0,-2.302,0,-,13.359,-7.438
AsZrO3,As,Zr,2,4,0.58,0.72,cubic,0,4.124,4.124,4.124,90,90,90,0,-1.825,0.837,-0.004,14.031,-0.708
BAsO3,B,As,1,5,0.27,0.46,cubic,0,3.658,3.658,3.658,90,90,90,0,-0.025,2.01,-,9.791,1.49
BBiO3,B,Bi,1,5,0.27,0.76,cubic,0,4.139,4.139,4.139,90,90,90,0,0.213,2.336,-,14.181,-0.018
BCeO3,B,Ce,2,4,0.27,0.87,cubic,0,4.537,4.537,4.537,90,90,90,0,-0.244,3.029,0.001,18.681,-4.648
BCoO3,B,Co,2,4,0.27,0.53,cubic,0,3.623,3.623,3.623,90,90,90,0,0.418,2.356,-0.538,9.511,-2.534
BCrO3,B,Cr,1,5,0.27,0.49,cubic,0,3.699,3.699,3.699,90,90,90,0,-0.315,2.274,0.201,10.118,-1.803
BFeO3,B,Fe,1,5,0.27,0.59,cubic,0,3.685,3.685,3.685,90,90,90,0,0.155,2.322,0.719,10.011,-3.619
BGeO3,B,Ge,2,4,0.27,0.53,cubic,0,3.682,3.682,3.682,90,90,90,0,-0.116,2.046,-,9.982,-0.598
BHfO3,B,Hf,2,4,0.27,0.71,cubic,0,4.079,4.079,4.079,90,90,90,0,-1.258,1.936,0.002,13.578,-0.733
BIrO3,B,Ir,1,5,0.27,0.57,cubic,0,3.842,3.842,3.842,90,90,90,0,0.308,2.098,0.183,11.344,0.614
BMnO3,B,Mn,2,4,0.27,0.53,cubic,0,3.687,3.687,3.687,90,90,90,0,-0.058,2.262,0.409,10.023,-3.248
BMoO3,B,Mo,1,5,0.27,0.61,cubic,0,3.874,3.874,3.874,90,90,90,0,-0.771,1.51,0.001,11.628,3.943
BNbO3,B,Nb,1,5,0.27,0.64,cubic,0,3.968,3.968,3.968,90,90,90,1.744,-1.19,1.383,-0.001,12.499,4.31
BNiO3,B,Ni,2,4,0.27,0.48,cubic,0,3.602,3.602,3.602,90,90,90,0,0.676,2.525,0.03,9.346,-5.604
BPbO3,B,Pb,2,4,0.27,0.78,cubic,0,4.201,4.201,4.201,90,90,90,0,0.559,2.534,-,14.833,-3.923
BPdO3,B,Pd,2,4,0.27,0.62,cubic,0,3.868,3.868,3.868,90,90,90,0,0.797,2.368,-,11.579,-3.802
BPrO3,B,Pr,2,4,0.27,0.85,cubic,0,4.45,4.45,4.45,90,90,90,0,-0.294,2.992,-0.407,17.629,-4.606
BReO3,B,Re,1,5,0.27,0.58,cubic,0,3.844,3.844,3.844,90,90,90,0,-0.466,1.614,0,11.364,3.731
BRhO3,B,Rh,2,4,0.27,0.6,cubic,0,3.834,3.834,3.834,90,90,90,0,0.416,2.194,0.223,11.27,-2.071
BRuO3,B,Ru,1,5,0.27,0.57,cubic,0,3.817,3.817,3.817,90,90,90,0,0.072,1.954,0.014,11.119,1.369
BSbO3,B,Sb,1,5,0.27,0.6,cubic,0,3.906,3.906,3.906,90,90,90,0,-0.284,1.817,-,11.918,2.348
BSiO3,B,Si,2,4,0.27,0.4,cubic,0,3.47,3.47,3.47,90,90,90,0,-0.837,1.894,-,8.357,0.59
BSnO3,B,Sn,2,4,0.27,0.69,cubic,0,4.031,4.031,4.031,90,90,90,0,-0.053,2.164,-,13.101,-1.197
BTaO3,B,Ta,1,5,0.27,0.64,cubic,0,3.945,3.945,3.945,90,90,90,2.039,-1.443,1.307,0,12.282,5.114
BTbO3,B,Tb,2,4,0.27,0.76,cubic,0,4.343,4.343,4.343,90,90,90,0,-0.313,2.836,-0.01,16.383,-5.061
BTeO3,B,Te,2,4,0.27,0.97,cubic,0,4.014,4.014,4.014,90,90,90,0,0.034,1.93,-,12.935,1.175
BThO3,B,Th,2,4,0.27,0.94,cubic,0,4.468,4.468,4.468,90,90,90,0,-1.216,2.234,-0.112,17.835,-0.903
BTiO3,B,Ti,2,4,0.27,0.61,cubic,0,3.844,3.844,3.844,90,90,90,0,-0.984,1.888,-0.005,11.362,-1.49
BUO3,B,U,1,5,0.27,0.76,cubic,0,4.289,4.289,4.289,90,90,90,1.741,-1.577,1.601,0.2,15.778,4.164
BVO3,B,V,1,5,0.27,0.54,cubic,0,3.716,3.716,3.716,90,90,90,0,-0.76,1.928,-0.001,10.263,0.246
BWO3,B,W,1,5,0.27,0.62,cubic,0,3.88,3.88,3.88,90,90,90,0,-0.908,1.384,0,11.683,4.583
BZrO3,B,Zr,2,4,0.27,0.72,cubic,0,4.141,4.141,4.141,90,90,90,0,-1.084,1.999,0.001,14.199,-1.32
BaCeO3,Ba,Ce,2,4,1.61,0.87,orthorhombic,3,6.355,6.496,9.066,90,90,90,0,-2.784,0.15,0.2,18.712,-0.006
BaCoO3,Ba,Co,2,4,1.61,0.53,orthorhombic,3,5.642,5.646,8.012,90,90,90,0,-1.842,0.111,0.673,12.761,0.663
BaCrO3,Ba,Cr,2,4,1.61,0.55,orthorhombic,3,5.607,5.607,7.882,90,90,90,0.258,-2.461,0.123,0.4,12.39,1.778
BaFeO3,Ba,Fe,2,4,1.61,0.59,cubic,0,3.973,3.973,3.973,90,90,90,0,-2.095,0,0.826,12.547,1.185
BaGeO3,Ba,Ge,2,4,1.61,0.53,rhombohedral,2,5.585,5.585,5.585,60,60,60,0,-2.299,0.226,-,12.316,3.341
BaHfO3,Ba,Hf,2,4,1.61,0.71,cubic,0,4.174,4.174,4.174,90,90,90,3.687,-3.625,-0.247,0,14.549,6.962
BaIrO3,Ba,Ir,2,4,1.61,0.63,orthorhombic,3,5.703,5.773,8.106,90,90,90,0,-1.727,0.121,0.053,13.345,2.572
BaMnO3,Ba,Mn,2,4,1.61,0.53,orthorhombic,3,5.626,5.638,7.972,90,90,90,0,-2.269,0.111,0.598,12.644,1.152
BaMoO3,Ba,Mo,2,4,1.61,0.65,cubic,0,4.056,4.056,4.056,90,90,90,0,-2.585,0.004,0,13.348,5.505
BaNbO3,Ba,Nb,2,4,1.61,0.68,cubic,0,4.125,4.125,4.125,90,90,90,0,-3.016,-0.035,0,14.034,6.121
BaNiO3,Ba,Ni,2,4,1.61,0.48,orthorhombic,3,5.625,5.659,7.979,90,90,90,0,-1.591,0.177,-0.001,12.698,0.252
BaPbO3,Ba,Pb,2,4,1.61,0.78,orthorhombic,3,6.088,6.12,8.633,90,90,90,0.618,-1.947,-0.066,-,16.081,1.793
BaPdO3,Ba,Pd,2,4,1.61,0.62,orthorhombic,3,5.733,5.793,8.219,90,90,90,0,-1.536,-0.005,-,13.648,0.534
BaPrO3,Ba,Pr,2,4,1.61,0.85,orthorhombic,3,6.323,6.446,9.008,90,90,90,0,-2.815,0.149,0.2,18.356,0.014
BaReO3,Ba,Re,2,4,1.61,0.63,cubic,0,4.038,4.038,4.038,90,90,90,0,-2.199,0.134,0.005,13.167,4.794
BaRhO3,Ba,Rh,2,4,1.61,0.6,orthorhombic,3,5.705,5.751,8.095,90,90,90,0,-1.756,0.076,0.188,13.279,1.905
BaRuO3,Ba,Ru,2,4,1.61,0.62,cubic,0,4.036,4.036,4.036,90,90,90,0,-1.953,0.071,0.389,13.15,3.303
BaSnO3,Ba,Sn,2,4,1.61,0.69,cubic,0,4.154,4.154,4.154,90,90,90,0.883,-2.443,-0.052,-,14.338,4.152
BaTaO3,Ba,Ta,2,4,1.61,0.68,cubic,0,4.104,4.104,4.104,90,90,90,0,-3.108,0.042,0,13.824,6.487
BaTbO3,Ba,Tb,2,4,1.61,0.76,orthorhombic,3,6.189,6.243,8.773,90,90,90,0,-2.831,0.13,0.199,16.947,0.154
BaTeO3,Ba,Te,2,4,1.61,0.97,tetragonal,1,4.249,4.249,4.483,90,90,90,0.743,-2.056,0.129,-,16.187,3.391
BaThO3,Ba,Th,2,4,1.61,0.94,orthorhombic,3,6.369,6.443,9.045,90,90,90,4.363,-3.62,-0.004,0,18.557,6.151
BaTiO3,Ba,Ti,2,4,1.61,0.61,tetragonal,1,3.987,3.987,4.099,90,90,90,1.68,-3.288,-0.03,0,13.029,5.357
BaUO3,Ba,U,2,4,1.61,0.89,orthorhombic,3,6.256,6.32,8.893,90,90,90,2.645,-3.46,-0.094,0.4,17.58,5.448
BaVO3,Ba,V,2,4,1.61,0.58,orthorhombic,3,5.583,5.584,8.142,90,90,90,0,-2.801,0.065,0.2,12.693,3.522
BaWO3,Ba,W,2,4,1.61,0.66,cubic,0,4.059,4.059,4.059,90,90,90,0,-2.57,0.157,0,13.372,5.861
BaZrO3,Ba,Zr,2,4,1.61,0.72,cubic,0,4.225,4.225,4.225,90,90,90,3.108,-3.477,-0.096,0,15.082,6.582
BeCeO3,Be,Ce,2,4,0.45,0.87,rhombohedral,2,6.248,6.248,6.248,52,52,52,0,-2.693,0.254,0.2,14.01,-6.265
BeCoO3,Be,Co,2,4,0.45,0.53,cubic,0,3.594,3.594,3.594,90,90,90,0,-0.402,1.411,0.465,9.284,-2.203
BeCrO3,Be,Cr,2,4,0.45,0.55,cubic,0,3.689,3.689,3.689,90,90,90,0,-1.06,1.393,0.399,10.041,-1.02
BeFeO3,Be,Fe,2,4,0.45,0.59,cubic,0,3.668,3.668,3.668,90,90,90,0,-0.705,1.307,0.8,9.87,-1.666
BeGeO3,Be,Ge,2,4,0.45,0.53,cubic,0,3.641,3.641,3.641,90,90,90,0,-1.002,1.318,-,9.656,1.025
BeHfO3,Be,Hf,2,4,0.45,0.71,cubic,0,4.024,4.024,4.024,90,90,90,0,-1.942,1.548,0,13.036,-0.712
BeIrO3,Be,Ir,2,4,0.45,0.63,cubic,0,3.85,3.85,3.85,90,90,90,0,-0.197,1.628,0.06,11.415,-0.806
BeMnO3,Be,Mn,2,4,0.45,0.53,cubic,0,3.657,3.657,3.657,90,90,90,0,-0.913,1.324,0.618,9.779,-1.718
BeMoO3,Be,Mo,2,4,0.45,0.65,cubic,0,3.873,3.873,3.873,90,90,90,0,-1.171,1.308,-0.006,11.622,2.844
BeNbO3,Be,Nb,2,4,0.45,0.68,cubic,0,3.965,3.965,3.965,90,90,90,0,-1.581,1.237,-0.121,12.464,0.656
BeNiO3,Be,Ni,2,4,0.45,0.48,cubic,0,3.594,3.594,3.594,90,90,90,0,-0.235,1.448,0.007,9.284,-3.345
BePbO3,Be,Pb,2,4,0.45,0.78,cubic,0,4.13,4.13,4.13,90,90,90,0,-0.096,1.76,-,14.091,-3.813
BePdO3,Be,Pd,2,4,0.45,0.62,cubic,0,3.856,3.856,3.856,90,90,90,0,0.094,1.54,-,11.465,-3.355
BePrO3,Be,Pr,2,4,0.45,0.85,orthorhombic,3,4.795,5.754,8.187,90,90,90,0,-2.803,0.172,0,11.293,-6.027
BeReO3,Be,Re,2,4,0.45,0.63,cubic,0,3.851,3.851,3.851,90,90,90,0,-0.851,1.361,0.006,11.423,1.989
BeRhO3,Be,Rh,2,4,0.45,0.6,cubic,0,3.832,3.832,3.832,90,90,90,0,-0.191,1.618,0.246,11.255,-1.58
BeRuO3,Be,Ru,2,4,0.45,0.62,cubic,0,3.828,3.828,3.828,90,90,90,0,-0.442,1.505,0.393,11.219,0.043
BeSbO3,Be,Sb,2,4,0.45,0.68,cubic,0,3.947,3.947,3.947,90,90,90,0,-0.721,1.456,-,12.302,-0.43
BeSiO3,Be,Si,2,4,0.45,0.4,cubic,0,3.446,3.446,3.446,90,90,90,0.352,-1.794,1.243,-,8.185,4.114
BeSnO3,Be,Sn,2,4,0.45,0.69,cubic,0,3.968,3.968,3.968,90,90,90,0,-0.796,1.562,-,12.497,-1.064
BeTaO3,Be,Ta,2,4,0.45,0.68,cubic,0,3.942,3.942,3.942,90,90,90,0,-1.819,1.121,-0.148,12.253,1.696
BeTbO3,Be,Tb,2,4,0.45,0.76,cubic,0,4.269,4.269,4.269,90,90,90,0,-0.928,2.038,0.207,15.561,-5.319
BeTeO3,Be,Te,2,4,0.45,0.97,cubic,0,4.048,4.048,4.048,90,90,90,0,-0.373,1.593,-,13.261,-0.192
BeThO3,Be,Th,2,4,0.45,0.94,cubic,0,4.501,4.501,4.501,90,90,90,0,-1.654,2.074,-0.086,18.234,-3.297
BeTiO3,Be,Ti,2,4,0.45,0.61,cubic,0,3.794,3.794,3.794,90,90,90,0,-1.778,1.354,0,10.925,0.033
BeUO3,Be,U,2,4,0.45,0.89,cubic,0,4.289,4.289,4.289,90,90,90,0,-1.951,1.527,0.026,15.782,4.378
BeVO3,Be,V,2,4,0.45,0.58,cubic,0,3.706,3.706,3.706,90,90,90,0,-1.342,1.347,0,10.176,0.146
BeWO3,Be,W,2,4,0.45,0.66,cubic,0,3.882,3.882,3.882,90,90,90,0,-1.28,1.213,-0.017,11.697,3.601
BeZrO3,Be,Zr,2,4,0.45,0.72,cubic,0,4.086,4.086,4.086,90,90,90,0,-1.735,1.631,0,13.64,-1.469
BiAgO3,Bi,Ag,3,3,1.38,0.75,orthorhombic,3,5.78,6.05,7.719,90,90,90,0.357,-0.816,0.065,-,13.495,-0.274
BiAlO3,Bi,Al,3,3,1.38,0.54,orthorhombic,3,5.335,5.391,7.569,90,90,90,2.652,-2.319,0.069,-,10.885,4.691
BiAsO3,Bi,As,3,3,1.38,0.58,orthorhombic,3,5.546,6.004,8.081,90,90,90,0.33,-1.232,0.228,-,13.453,1.801
BiCeO3,Bi,Ce,2,4,1.38,0.87,cubic,0,4.562,4.562,4.562,90,90,90,0,-1.53,0.967,0.042,18.987,-4.278
BiCoO3,Bi,Co,3,3,1.38,0.61,orthorhombic,3,5.349,5.666,7.671,90,90,90,0.441,-1.249,0.136,0,11.625,2.897
BiCrO3,Bi,Cr,3,3,1.38,0.62,orthorhombic,3,5.43,5.647,7.781,90,90,90,1.56,-1.962,0.016,0.6,11.928,3.843
BiCuO3,Bi,Cu,3,3,1.38,0.54,orthorhombic,3,5.369,5.948,7.408,90,90,90,0,-1.063,0.03,-,11.827,0.652
BiDyO3,Bi,Dy,3,3,1.38,0.91,cubic,0,4.307,4.307,4.307,90,90,90,0,-2.004,0.658,0,15.976,-1.152
BiErO3,Bi,Er,3,3,1.38,0.89,cubic,0,4.266,4.266,4.266,90,90,90,0,-2.085,0.6,0,15.533,-0.31
BiEuO3,Bi,Eu,3,3,1.38,0.95,orthorhombic,3,5.923,6.115,8.628,90,90,90,0,-2.122,0.133,0,15.624,-4.267