Chemical formula,A,B,Valence A,Valence B,Radius A [ang],Radius B [ang],Crystal Type,Crystal Type,a [ang],b [ang],c [ang],alpha [deg],beta [deg],gamma [deg],Band gap [eV],Formation energy [eV/atom],Stability [eV/atom],Magnetic moment [mu_B],Volume per atom [A^3/atom],Vacancy energy [eV/O atom]
FeBiO3,Fe,Bi,1,5,0.92,0.76,orthorhombic,3,5.643,5.652,8.184,90,90,90,0,-1.345,0.224,0.793,13.052,-
FeCeO3,Fe,Ce,2,4,0.92,0.87,orthorhombic,3,5.697,5.723,8.764,90,90,90,1.584,-2.463,0.206,1,14.287,-6.169
FeCoO3,Fe,Co,2,4,0.92,0.53,cubic,0,3.595,3.595,3.595,90,90,90,0,-0.651,0.812,1.224,9.292,-1.547
FeCrO3,Fe,Cr,2,4,0.92,0.55,cubic,0,3.942,3.942,3.942,90,90,90,0,-1.145,0.92,1.433,12.253,-2.381
FeDyO3,Fe,Dy,3,3,0.78,0.91,cubic,0,4.263,4.263,4.263,90,90,90,0,-1.335,1.448,1.001,15.497,-5.519
FeErO3,Fe,Er,3,3,0.78,0.89,cubic,0,4.12,4.12,4.12,90,90,90,0,-1.331,1.464,0.818,13.992,-5.831
FeEuO3,Fe,Eu,3,3,0.78,0.95,orthorhombic,3,5.643,5.67,8.401,90,90,90,0.232,-2.13,0.286,0.8,13.439,-7.932
Fe2O3,Fe,Fe,3,3,0.78,0.65,cubic,0,3.725,3.725,3.725,90,90,90,0,-0.936,0.714,1.658,10.338,-1.446
FeGaO3,Fe,Ga,3,3,0.78,0.62,cubic,0,3.735,3.735,3.735,90,90,90,0,-0.979,0.898,0.999,10.419,-3.176
FeGdO3,Fe,Gd,3,3,0.78,0.94,orthorhombic,3,5.532,5.565,8.369,90,90,90,1.638,-2.587,0.179,1,12.88,-5.837
FeGeO3,Fe,Ge,2,4,0.92,0.53,cubic,0,3.691,3.691,3.691,90,90,90,0,-1.199,0.621,0.799,10.059,-
FeHfO3,Fe,Hf,2,4,0.92,0.71,cubic,0,4.043,4.043,4.043,90,90,90,0,-2.22,0.691,0.8,13.214,0.664
FeHoO3,Fe,Ho,3,3,0.78,0.9,cubic,0,4.491,4.491,4.491,90,90,90,0,-1.299,1.49,1.001,18.12,-6.084
FeIrO3,Fe,Ir,2,4,0.92,0.63,cubic,0,3.828,3.828,3.828,90,90,90,0,-0.426,0.878,0.897,11.221,-0.962
FeLaO3,Fe,La,3,3,0.78,1.03,orthorhombic,3,5.688,5.694,8.774,90,90,90,1.742,-2.577,0.178,1,14.207,-6.303
FeLuO3,Fe,Lu,3,3,0.78,0.86,-,-,-,-,-,-,-,-,-,-,-,-,-,-
FeMnO3,Fe,Mn,2,4,0.92,0.53,cubic,0,3.715,3.715,3.715,90,90,90,0,-1.138,0.695,1.487,10.256,-1.399
FeMoO3,Fe,Mo,2,4,0.92,0.65,rhombohedral,2,5.404,5.404,5.404,59.4,59.4,59.4,0,-1.736,0.204,0.417,10.999,3.347
FeNbO3,Fe,Nb,2,4,0.92,0.68,orthorhombic,3,5.289,5.448,7.654,90,90,90,0,-2.137,0.205,0.603,11.027,3.879
FeNiO3,Fe,Ni,2,4,0.92,0.48,cubic,0,3.623,3.623,3.623,90,90,90,0,-0.519,0.815,1.133,9.512,-2.889
FePbO3,Fe,Pb,2,4,0.92,0.78,rhombohedral,2,5.927,5.927,5.927,57.6,57.6,57.6,0,-1.213,0.229,0.881,13.92,-
FePdO3,Fe,Pd,2,4,0.92,0.62,cubic,0,3.887,3.887,3.887,90,90,90,0,-0.172,0.913,0.942,11.741,-
FeReO3,Fe,Re,2,4,0.92,0.63,cubic,0,3.923,3.923,3.923,90,90,90,0,-1.072,0.561,0.661,12.073,1.515
FeRhO3,Fe,Rh,2,4,0.92,0.6,cubic,0,3.859,3.859,3.859,90,90,90,0,-0.455,0.837,1.044,11.49,-1.01
FeRuO3,Fe,Ru,1,5,0.92,0.57,cubic,0,4.397,4.397,4.397,90,90,90,0,-0.063,1.337,1.346,17.007,-
FeSbO3,Fe,Sb,1,5,0.92,0.6,cubic,0,3.977,3.977,3.977,90,90,90,0,-0.99,0.664,0.663,12.578,-
FeSiO3,Fe,Si,2,4,0.92,0.4,cubic,0,3.512,3.512,3.512,90,90,90,0,-1.908,0.594,0.8,8.664,3.687
FeSnO3,Fe,Sn,2,4,0.92,0.69,cubic,0,3.992,3.992,3.992,90,90,90,0,-1.056,0.724,0.8,12.725,-
FeTaO3,Fe,Ta,2,4,0.92,0.68,orthorhombic,3,5.178,5.767,7.432,90,90,90,0,-2.288,0.272,0.619,11.095,4.7
FeTbO3,Fe,Tb,2,4,0.92,0.76,cubic,0,4.28,4.28,4.28,90,90,90,0,-1.188,1.455,0.983,15.678,-5.344
FeTeO3,Fe,Te,2,4,0.92,0.97,cubic,0,4.076,4.076,4.076,90,90,90,0,-0.652,0.771,0.675,13.545,0.539
FeThO3,Fe,Th,2,4,0.92,0.94,cubic,0,4.713,4.713,4.713,90,90,90,0,-1.891,1.259,0.801,20.94,-
FeTiO3,Fe,Ti,2,4,0.92,0.61,cubic,0,3.824,3.824,3.824,90,90,90,0,-2.033,0.567,0.799,11.18,1.521
FeTlO3,Fe,Tl,3,3,0.78,0.89,orthorhombic,3,5.458,5.471,8.441,90,90,90,0.664,-1.146,0.148,1,12.604,-5.325
FeTmO3,Fe,Tm,3,3,0.78,0.88,cubic,0,4.187,4.187,4.187,90,90,90,0,-1.45,1.373,1.003,14.675,-4.947
FeUO3,Fe,U,2,4,0.92,0.89,cubic,0,4.293,4.293,4.293,90,90,90,0,-2.187,0.712,0.85,15.825,-
FeVO3,Fe,V,2,4,0.92,0.58,cubic,0,3.735,3.735,3.735,90,90,90,0,-1.596,0.55,0.854,10.423,-
FeWO3,Fe,W,2,4,0.92,0.66,rhombohedral,2,5.299,5.299,5.299,61,61,61,0,-1.692,0.309,0.612,10.754,-
FeYbO3,Fe,Yb,3,3,0.78,0.87,orthorhombic,3,5.523,5.641,8.013,90,90,90,0,-2.132,0.252,1.081,12.484,-6.404
FeZrO3,Fe,Zr,2,4,0.92,0.72,cubic,0,4.099,4.099,4.099,90,90,90,0,-2.02,0.768,0.8,13.774,-0.155
GaAlO3,Ga,Al,3,3,0.62,0.54,cubic,0,3.638,3.638,3.638,90,90,90,0,-1.81,0.873,-,9.633,-2.101
GaAsO3,Ga,As,1,5,0.62,0.46,cubic,0,3.793,3.793,3.793,90,90,90,0,-0.972,0.802,-,10.91,1.189
GaBO3,Ga,B,3,3,0.62,0.27,cubic,0,3.334,3.334,3.334,90,90,90,0,-0.962,1.4,-,7.415,-1.46
GaBiO3,Ga,Bi,1,5,0.62,0.76,orthorhombic,3,5.373,6.159,9.071,90,90,90,1.6,-1.645,0.153,-,15.009,-1.408
GaCrO3,Ga,Cr,1,5,0.62,0.49,cubic,0,3.763,3.763,3.763,90,90,90,0,-1.394,0.897,0.433,10.66,-1.107
GaIrO3,Ga,Ir,1,5,0.62,0.57,cubic,0,3.912,3.912,3.912,90,90,90,0,-0.682,0.848,0.121,11.978,1.044
GaMoO3,Ga,Mo,1,5,0.62,0.61,cubic,0,3.934,3.934,3.934,90,90,90,0,-1.725,0.298,0,12.174,4.552
GaNbO3,Ga,Nb,1,5,0.62,0.64,tetragonal,1,3.963,3.963,4.175,90,90,90,0.296,-2.186,0.159,0,13.115,4.928
GaNiO3,Ga,Ni,3,3,0.62,0.6,cubic,0,3.651,3.651,3.651,90,90,90,0,-0.575,0.994,0.149,9.735,-3.142
GaReO3,Ga,Re,1,5,0.62,0.58,cubic,0,3.909,3.909,3.909,90,90,90,0,-1.394,0.425,0,11.944,4.492
GaRuO3,Ga,Ru,1,5,0.62,0.57,cubic,0,3.882,3.882,3.882,90,90,90,0,-0.923,0.697,0.005,11.697,1.601
GaSbO3,Ga,Sb,1,5,0.62,0.6,cubic,0,3.993,3.993,3.993,90,90,90,0,-1.237,0.604,-,12.736,2.604
GaSiO3,Ga,Si,2,4,0.62,0.4,cubic,0,3.546,3.546,3.546,90,90,90,0,-1.882,0.662,-,8.921,3.184
GaTaO3,Ga,Ta,1,5,0.62,0.64,tetragonal,1,3.966,3.966,4.044,90,90,90,0.989,-2.396,0.146,0,12.719,5.757
GaUO3,Ga,U,1,5,0.62,0.76,tetragonal,1,4.308,4.332,4.332,90,90,90,2.492,-2.623,0.369,0.2,16.167,4.188
GaVO3,Ga,V,1,5,0.62,0.54,cubic,0,3.787,3.787,3.787,90,90,90,0,-1.719,0.646,-0.078,10.861,1.138
GaWO3,Ga,W,1,5,0.62,0.62,cubic,0,3.939,3.939,3.939,90,90,90,0,-1.84,0.19,0,12.222,5.257
GdAgO3,Gd,Ag,3,3,1.11,0.75,cubic,0,4.023,4.023,4.023,90,90,90,0,-1.484,0.525,0,13.023,-0.407
GdAlO3,Gd,Al,3,3,1.11,0.54,orthorhombic,3,5.221,5.333,7.428,90,90,90,5.604,-3.569,-0.041,0,10.339,6.35
GdAsO3,Gd,As,3,3,1.11,0.58,cubic,0,4,4,4,90,90,90,0,-1.959,0.66,0,12.804,2.291
GdBiO3,Gd,Bi,3,3,1.11,1.03,cubic,0,4.365,4.365,4.365,90,90,90,0,-1.581,1.053,0,16.633,1.002
GdCeO3,Gd,Ce,3,3,1.11,1.01,cubic,0,4.537,4.537,4.537,90,90,90,0.432,-2.371,1.285,0,18.68,-2.684
GdCoO3,Gd,Co,3,3,1.11,0.61,-,-,-,-,-,-,-,-,-,-,-,-,-,-
GdCrO3,Gd,Cr,3,3,1.11,0.62,orthorhombic,3,5.307,5.585,7.625,90,90,90,2.406,-3.185,-0.048,0.6,11.301,4.365
GdCuO3,Gd,Cu,3,3,1.11,0.54,orthorhombic,3,5.251,5.86,7.265,90,90,90,0,-2.263,0.043,0,11.178,0.875
GdDyO3,Gd,Dy,3,3,1.11,0.91,cubic,0,4.266,4.266,4.266,90,90,90,1.71,-2.964,0.858,0,15.526,1.644
GdErO3,Gd,Er,3,3,1.11,0.89,cubic,0,4.219,4.219,4.219,90,90,90,1.779,-3.062,0.783,0,15.015,4.376
GdEuO3,Gd,Eu,3,3,1.11,0.95,cubic,0,4.259,4.259,4.259,90,90,90,0,-2.193,1.062,0.106,15.453,-2.044
GdFeO3,Gd,Fe,3,3,1.11,0.65,orthorhombic,3,5.33,5.614,7.646,90,90,90,1.164,-2.766,-0.023,1,11.439,3.384
GdGaO3,Gd,Ga,3,3,1.11,0.62,orthorhombic,3,5.305,5.571,7.608,90,90,90,4.008,-2.954,0.045,0,11.244,4.584
Gd2O3,Gd,Gd,3,3,1.11,0.94,cubic,0,4.319,4.319,4.319,90,90,90,1.454,-2.85,0.943,0,16.115,0.68
GdGeO3,Gd,Ge,2,4,1.11,0.53,cubic,0,3.881,3.881,3.881,90,90,90,0,-2.259,0.558,0,11.688,2.902
GdHfO3,Gd,Hf,2,4,1.11,0.71,orthorhombic,3,5.492,6.076,7.576,90,90,90,0,-3.433,0.211,0.001,12.641,4.652
GdHoO3,Gd,Ho,3,3,1.11,0.9,cubic,0,4.243,4.243,4.243,90,90,90,1.648,-3.015,0.818,0,15.277,1.857
GdInO3,Gd,In,3,3,1.11,0.8,cubic,0,4.05,4.05,4.05,90,90,90,1.499,-2.182,0.636,0,13.283,2.787
GdIrO3,Gd,Ir,2,4,1.11,0.63,cubic,0,3.958,3.958,3.958,90,90,90,0,-1.696,0.68,0,12.398,-0.662
GdLaO3,Gd,La,3,3,1.11,1.03,cubic,0,4.515,4.515,4.515,90,90,90,0.402,-2.493,1.259,0,18.403,-2.66
GdLuO3,Gd,Lu,3,3,1.11,0.86,cubic,0,4.155,4.155,4.155,90,90,90,1.993,-3.203,0.674,0,14.345,4.72
GdMnO3,Gd,Mn,3,3,1.11,0.65,orthorhombic,3,5.319,5.74,7.527,90,90,90,0.23,-2.944,0.002,0.8,11.491,3.6
GdMoO3,Gd,Mo,3,3,1.11,0.69,cubic,0,3.958,3.958,3.958,90,90,90,0,-2.33,0.55,0.005,12.4,1.977
GdNbO3,Gd,Nb,3,3,1.11,0.72,cubic,0,4.028,4.028,4.028,90,90,90,0,-2.654,0.539,0.001,13.069,3.349
GdNdO3,Gd,Nd,3,3,1.11,0.98,cubic,0,4.453,4.453,4.453,90,90,90,0.78,-2.551,1.155,0,17.658,-1.457
GdNiO3,Gd,Ni,3,3,1.11,0.6,orthorhombic,3,5.216,5.505,7.459,90,90,90,0,-2.39,0.003,0.2,10.708,1.181
GdPbO3,Gd,Pb,2,4,1.11,0.78,cubic,0,4.264,4.264,4.264,90,90,90,0,-1.554,0.96,0,15.508,0.631
GdPdO3,Gd,Pd,2,4,1.11,0.62,orthorhombic,3,5.423,5.911,7.558,90,90,90,0,-2.194,0.036,0.003,12.113,0.096
GdPrO3,Gd,Pr,3,3,1.11,0.99,cubic,0,4.492,4.492,4.492,90,90,90,0.601,-2.468,1.217,0,18.13,-2.045
GdReO3,Gd,Re,3,3,1.11,0.63,cubic,0,3.95,3.95,3.95,90,90,90,0,-1.956,0.757,0.162,12.322,0.537
GdRhO3,Gd,Rh,3,3,1.11,0.67,orthorhombic,3,5.291,5.787,7.654,90,90,90,0.966,-2.408,-0.044,0,11.717,0.071
GdRuO3,Gd,Ru,2,4,1.11,0.62,cubic,0,3.918,3.918,3.918,90,90,90,0,-1.957,0.526,0.121,12.032,0.899
GdSbO3,Gd,Sb,3,3,1.11,0.76,cubic,0,4.212,4.212,4.212,90,90,90,0,-1.794,0.957,-0.001,14.94,1.234
GdScO3,Gd,Sc,3,3,1.11,0.75,orthorhombic,3,5.462,5.744,7.903,90,90,90,4.618,-3.789,0.011,0,12.399,5.136
GdSiO3,Gd,Si,3,3,1.11,0.4,cubic,0,3.702,3.702,3.702,90,90,90,0,-2.666,0.681,0,10.145,4.651
GdSmO3,Gd,Sm,3,3,1.11,0.96,cubic,0,4.385,4.385,4.385,90,90,90,1.343,-2.697,1.05,0,16.867,-0.462
GdSnO3,Gd,Sn,2,4,1.11,0.69,cubic,0,4.109,4.109,4.109,90,90,90,0,-2.062,0.777,0,13.873,2.372
GdTaO3,Gd,Ta,3,3,1.11,0.72,cubic,0,4.006,4.006,4.006,90,90,90,0,-2.731,0.577,0.001,12.86,3.388
GdTbO3,Gd,Tb,3,3,1.11,0.92,cubic,0,4.292,4.292,4.292,90,90,90,1.582,-2.778,0.899,0,15.81,1.004
GdTeO3,Gd,Te,2,4,1.11,0.97,cubic,0,4.236,4.236,4.236,90,90,90,0,-1.48,1.067,0.003,15.202,0.972
GdTiO3,Gd,Ti,2,4,1.11,0.61,orthorhombic,3,5.341,5.687,7.675,90,90,90,0,-3.45,0.036,0.2,11.654,4.865
GdTlO3,Gd,Tl,3,3,1.11,0.89,orthorhombic,3,5.626,5.984,8.458,90,90,90,1.12,-2.271,0.094,0.001,14.239,0.686
GdTmO3,Gd,Tm,3,3,1.11,0.88,cubic,0,4.195,4.195,4.195,90,90,90,1.964,-3.122,0.74,0,14.761,4.498
GdUO3,Gd,U,3,3,1.11,1.03,cubic,0,4.389,4.389,4.389,90,90,90,0,-2.621,0.994,0.539,16.911,2.093
GdVO3,Gd,V,3,3,1.11,0.64,orthorhombic,3,5.336,5.697,7.649,90,90,90,1.258,-3.255,-0.044,0.4,11.626,4.106
GdWO3,Gd,W,3,3,1.11,0.66,cubic,0,3.963,3.963,3.963,90,90,90,0,-2.25,0.728,0.001,12.45,1.535
GdYO3,Gd,Y,3,3,1.11,0.9,cubic,0,4.266,4.266,4.266,90,90,90,1.911,-2.94,0.86,0,15.525,1.453
GdYbO3,Gd,Yb,3,3,1.11,0.87,cubic,0,4.104,4.104,4.104,90,90,90,0,-2.441,0.859,0.158,13.821,-1.69
GdZrO3,Gd,Zr,2,4,1.11,0.72,cubic,0,4.125,4.125,4.125,90,90,90,0,-3.015,0.525,0,14.033,4.296
GeCeO3,Ge,Ce,2,4,0.73,0.87,orthorhombic,3,5.774,6.139,8.589,90,90,90,0,-2.466,0.228,0,15.221,-4.155
GeCoO3,Ge,Co,2,4,0.73,0.53,cubic,0,3.713,3.713,3.713,90,90,90,0,-0.73,0.961,0.532,10.239,0.905
GeCrO3,Ge,Cr,2,4,0.73,0.55,cubic,0,3.782,3.782,3.782,90,90,90,0,-1.431,0.66,0.4,10.822,1.067
GeFeO3,Ge,Fe,2,4,0.73,0.59,cubic,0,3.774,3.774,3.774,90,90,90,0,-1.043,0.777,0.8,10.753,0.461
GeHfO3,Ge,Hf,2,4,0.73,0.71,orthorhombic,3,5.421,5.756,7.86,90,90,90,2.728,-2.66,0.218,0,12.262,4.589
GeIrO3,Ge,Ir,2,4,0.73,0.63,cubic,0,3.918,3.918,3.918,90,90,90,0,-0.566,0.886,0.009,12.03,0.709
GeMnO3,Ge,Mn,2,4,0.73,0.53,cubic,0,3.76,3.76,3.76,90,90,90,0,-1.236,0.789,0.6,10.629,0.575
GeMoO3,Ge,Mo,2,4,0.73,0.65,orthorhombic,3,5.283,5.684,7.696,90,90,90,0,-1.555,0.304,0.346,11.553,3.986
GeNbO3,Ge,Nb,2,4,0.73,0.68,orthorhombic,3,5.31,5.812,7.795,90,90,90,0,-1.97,0.296,0.195,12.028,4.379
GeNiO3,Ge,Ni,2,4,0.73,0.48,cubic,0,3.701,3.701,3.701,90,90,90,0,-0.525,1.172,0.218,10.14,-2.919
GePbO3,Ge,Pb,2,4,0.73,0.78,rhombohedral,2,6.153,6.153,6.153,58.4,58.4,58.4,1.688,-1.481,0.28,-,15.853,0.674
GePdO3,Ge,Pd,2,4,0.73,0.62,cubic,0,3.925,3.925,3.925,90,90,90,0,-0.349,1.044,-,12.095,-0.489
GePrO3,Ge,Pr,2,4,0.73,0.85,cubic,0,4.454,4.454,4.454,90,90,90,0,-1.336,1.302,0.2,17.667,-4.047
GeReO3,Ge,Re,2,4,0.73,0.63,cubic,0,3.919,3.919,3.919,90,90,90,0,-1.095,0.551,0,12.042,2.429
GeRhO3,Ge,Rh,2,4,0.73,0.6,cubic,0,3.9,3.9,3.9,90,90,90,0,-0.605,0.839,0.049,11.86,0.665
GeRuO3,Ge,Ru,2,4,0.73,0.62,cubic,0,3.899,3.899,3.899,90,90,90,0,-0.817,0.697,0.326,11.859,2.002
GeSbO3,Ge,Sb,2,4,0.73,0.68,cubic,0,4.068,4.068,4.068,90,90,90,0,-1.036,0.643,-,13.468,2.138
GeSiO3,Ge,Si,2,4,0.73,0.4,tetragonal,1,3.419,3.419,4.324,90,90,90,2.063,-2.029,0.382,-,10.11,5.488
GeSnO3,Ge,Sn,2,4,0.73,0.69,orthorhombic,3,5.274,5.879,7.909,90,90,90,1.097,-1.525,0.245,-,12.262,2.94
GeTaO3,Ge,Ta,2,4,0.73,0.68,rhombohedral,2,5.255,5.255,5.255,66.4,66.4,66.4,0,-2.091,0.383,0,11.682,-
GeTbO3,Ge,Tb,2,4,0.73,0.76,cubic,0,4.296,4.296,4.296,90,90,90,0,-1.46,1.17,0.201,15.855,-3.122
GeTeO3,Ge,Te,2,4,0.73,0.97,cubic,0,4.166,4.166,4.166,90,90,90,0,-0.732,0.794,-,14.464,1.654
GeThO3,Ge,Th,2,4,0.73,0.94,cubic,0,4.546,4.546,4.546,90,90,90,0.323,-2.162,0.978,0,18.789,2.191
GeTiO3,Ge,Ti,2,4,0.73,0.61,tetragonal,1,3.784,3.784,4.218,90,90,90,1.509,-2.361,0.151,0,12.078,4.252
GeUO3,Ge,U,2,4,0.73,0.89,cubic,0,4.319,4.319,4.319,90,90,90,0,-2.198,0.66,0.147,16.111,3.662
GeVO3,Ge,V,2,4,0.73,0.58,tetragonal,1,3.75,3.75,4.232,90,90,90,1.049,-1.954,0.211,0.2,11.902,2.827
GeWO3,Ge,W,2,4,0.73,0.66,tetragonal,1,3.884,4.015,4.015,90,90,90,0,-1.54,0.416,0.001,12.521,3.963
GeZrO3,Ge,Zr,2,4,0.73,0.72,cubic,0,4.125,4.125,4.125,90,90,90,1.703,-2.235,0.524,0,14.041,4.191
HfAsO3,Hf,As,4,2,0.83,0.58,cubic,0,3.941,3.941,3.941,90,90,90,0,-1.005,1.78,0.156,12.242,-0.386
HfBO3,Hf,B,4,2,0.83,0.27,cubic,0,3.399,3.399,3.399,90,90,90,0,-1.859,1.335,0,7.852,3.519
HfBaO3,Hf,Ba,4,2,0.83,1.35,orthorhombic,3,5.992,6.134,10.097,90,90,90,3.156,-3.268,0.357,0,18.555,-7.285
HfBeO3,Hf,Be,4,2,0.83,0.45,cubic,0,3.411,3.411,3.411,90,90,90,1.19,-2.726,0.764,0,7.939,4.212
HfCdO3,Hf,Cd,4,2,0.83,0.95,orthorhombic,3,5.597,5.763,7.943,90,90,90,2.471,-2.549,0.248,0,12.81,-7.342
HfCoO3,Hf,Co,4,2,0.83,0.75,cubic,0,3.644,3.644,3.644,90,90,90,0,-1.694,1.107,0.13,9.675,0.8
HfCrO3,Hf,Cr,2,4,0.83,0.55,cubic,0,3.767,3.767,3.767,90,90,90,0,-2.046,1.085,0.529,10.687,2.003
HfCuO3,Hf,Cu,4,2,0.83,0.73,cubic,0,3.681,3.681,3.681,90,90,90,0,-1.456,1.17,0,9.972,-0.388
HfDyO3,Hf,Dy,4,2,0.83,1.07,cubic,0,4.235,4.235,4.235,90,90,90,0,-1.967,1.686,0.163,15.186,-6.515
HfFeO3,Hf,Fe,4,2,0.83,0.78,cubic,0,3.774,3.774,3.774,90,90,90,0,-1.634,1.278,0.877,10.751,-
HfGeO3,Hf,Ge,2,4,0.83,0.53,cubic,0,3.818,3.818,3.818,90,90,90,0,-1.351,1.527,0.183,11.127,0.65
HfHgO3,Hf,Hg,4,2,0.83,1.02,orthorhombic,3,5.258,5.545,9.34,90,90,90,1.593,-2.228,0.257,0,13.616,-5.258
HfHoO3,Hf,Ho,4,2,0.83,0.9,cubic,0,4.21,4.21,4.21,90,90,90,0,-2.021,1.643,0.157,14.92,-6.539
HfMgO3,Hf,Mg,4,2,0.83,0.72,cubic,0,3.682,3.682,3.682,90,90,90,1.042,-2.321,1.161,0,9.985,0.79
HfMnO3,Hf,Mn,2,4,0.83,0.53,cubic,0,3.789,3.789,3.789,90,90,90,0,-1.819,1.299,0.773,10.879,1.45
HfNbO3,Hf,Nb,4,2,0.83,0.72,cubic,0,4.003,4.003,4.003,90,90,90,0,-1.795,1.37,0.286,12.824,0.433
HfNiO3,Hf,Ni,4,2,0.83,0.69,cubic,0,3.666,3.666,3.666,90,90,90,0,-1.67,1.13,0.353,9.852,0.593
HfPdO3,Hf,Pd,4,2,0.83,0.86,cubic,0,3.925,3.925,3.925,90,90,90,0,-0.881,1.682,0.001,12.094,-1.971
HfReO3,Hf,Re,4,2,0.83,0.63,cubic,0,3.91,3.91,3.91,90,90,90,0,-1.107,1.709,0.068,11.956,-2.156
HfRuO3,Hf,Ru,4,2,0.83,0.68,cubic,0,3.866,3.866,3.866,90,90,90,0,-1.117,1.566,0,11.56,-2.171
HfSiO3,Hf,Si,2,4,0.83,0.4,cubic,0,3.616,3.616,3.616,90,90,90,0,-1.854,1.383,0.097,9.46,2.102
HfSmO3,Hf,Sm,4,2,0.83,1.22,cubic,0,4.359,4.359,4.359,90,90,90,0,-1.688,1.89,0.176,16.56,-8.751
HfSrO3,Hf,Sr,4,2,0.83,1.18,orthorhombic,3,5.787,5.903,9.284,90,90,90,3.16,-3.325,0.328,0,15.858,-12.667
HfTaO3,Hf,Ta,4,2,0.83,0.72,cubic,0,3.984,3.984,3.984,90,90,90,0,-1.91,1.27,0.318,12.648,0.687
HfTbO3,Hf,Tb,4,2,0.83,0.92,cubic,0,4.261,4.261,4.261,90,90,90,0,-1.777,1.73,0.167,15.473,-7.388
HfTeO3,Hf,Te,4,2,0.83,0.97,cubic,0,4.198,4.198,4.198,90,90,90,0,-0.593,2.1,0.346,14.796,-4.294
HfTiO3,Hf,Ti,2,4,0.83,0.61,cubic,0,3.831,3.831,3.831,90,90,90,0,-2.353,1.048,0.004,11.241,2.226
HfTmO3,Hf,Tm,4,2,0.83,1.03,cubic,0,4.159,4.159,4.159,90,90,90,0,-2.136,1.557,0.145,14.389,-5.651
HfUO3,Hf,U,4,2,0.83,1.03,orthorhombic,3,6.015,6.445,7.303,90,90,90,0,-3.128,0.321,0.631,14.155,-3.025
HfVO3,Hf,V,4,2,0.83,0.79,cubic,0,3.804,3.804,3.804,90,90,90,0,-2.057,1.151,0.534,11.012,1.959
HfWO3,Hf,W,4,2,0.83,0.66,cubic,0,3.937,3.937,3.937,90,90,90,0,-1.419,1.538,0.291,12.201,-1.079
HfZnO3,Hf,Zn,4,2,0.83,0.74,cubic,0,3.765,3.765,3.765,90,90,90,0,-1.546,1.417,0,10.672,-1.354
HgAsO3,Hg,As,1,5,1.19,0.46,rhombohedral,2,5.54,5.54,5.54,59.3,59.3,59.3,0,-0.832,0.354,-,11.83,1.28
HgBiO3,Hg,Bi,1,5,1.19,0.76,rhombohedral,2,5.967,5.967,5.967,59.3,59.3,59.3,0,-0.914,0.038,-,14.794,-0.785
HgCoO3,Hg,Co,2,4,1.14,0.53,rhombohedral,2,5.275,5.275,5.275,60.9,60.9,60.9,0,-0.588,0.22,0.231,10.585,-1.207
HgCrO3,Hg,Cr,1,5,1.19,0.49,orthorhombic,3,5.426,5.478,7.543,90,90,90,0,-1.298,0.153,0.4,11.21,0.364
HgFeO3,Hg,Fe,2,4,1.14,0.59,orthorhombic,3,5.37,5.438,7.639,90,90,90,0,-0.88,0.126,0.8,11.153,-0.324
HgGeO3,Hg,Ge,2,4,1.14,0.53,rhombohedral,2,5.376,5.376,5.376,59.7,59.7,59.7,0.264,-1.168,0.163,-,10.906,1.602
HgHfO3,Hg,Hf,2,4,1.14,0.71,rhombohedral,2,5.758,5.758,5.758,58.3,58.3,58.3,1.478,-2.418,0.067,0,12.975,0.852
HgIrO3,Hg,Ir,1,5,1.19,0.57,rhombohedral,2,5.434,5.434,5.434,61.7,61.7,61.7,0,-0.614,0.207,0.092,11.774,1.554
HgMnO3,Hg,Mn,2,4,1.14,0.53,orthorhombic,3,5.379,5.43,7.599,90,90,90,0,-1.11,0.123,0.6,11.099,-0.273
HgMoO3,Hg,Mo,1,5,1.19,0.61,cubic,0,3.961,3.961,3.961,90,90,90,0,-1.403,0.327,0,12.426,3.003
HgNbO3,Hg,Nb,1,5,1.19,0.64,tetragonal,1,3.985,3.985,4.152,90,90,90,0,-1.862,0.215,0,13.185,2.488
HgNiO3,Hg,Ni,2,4,1.14,0.48,orthorhombic,3,5.384,5.488,7.449,90,90,90,0,-0.426,0.252,0.41,11.005,-1.642
HgPdO3,Hg,Pd,2,4,1.14,0.62,orthorhombic,3,5.486,5.599,7.84,90,90,90,0,-0.438,0.087,-,12.04,-1.285
HgReO3,Hg,Re,1,5,1.19,0.58,cubic,0,3.937,3.937,3.937,90,90,90,0,-1.079,0.441,0.001,12.206,3.003
HgRhO3,Hg,Rh,2,4,1.14,0.6,rhombohedral,2,5.43,5.43,5.43,61.4,61.4,61.4,0,-0.628,0.176,0.2,11.671,0.407
HgRuO3,Hg,Ru,1,5,1.19,0.57,rhombohedral,2,5.424,5.424,5.424,61.3,61.3,61.3,0,-0.767,0.175,0.222,11.602,1.303
HgSbO3,Hg,Sb,1,5,1.19,0.6,orthorhombic,2,5.694,5.771,8.207,90,90,90,0,-1.057,0.215,-,13.485,1.819
HgSiO3,Hg,Si,2,4,1.14,0.4,tetragonal,1,3.376,3.376,4.762,90,90,90,0,-1.694,0.332,-,10.855,1.748
HgSnO3,Hg,Sn,2,4,1.14,0.69,rhombohedral,2,5.7,5.7,5.7,59.2,59.2,59.2,0.23,-1.298,0.056,-,12.864,0.557
HgTaO3,Hg,Ta,1,5,1.19,0.64,cubic,0,4.019,4.019,4.019,90,90,90,0,-2.082,0.2,0,12.982,2.814
HgTeO3,Hg,Te,2,4,1.14,0.97,orthorhombic,3,5.765,5.857,8.315,90,90,90,0,-0.813,0.167,-,14.038,0.164
HgTiO3,Hg,Ti,2,4,1.14,0.61,rhombohedral,2,5.508,5.508,5.508,58.9,58.9,58.9,1.52,-2.038,0.09,0,11.512,1.847
HgUO3,Hg,U,1,5,1.19,0.76,tetragonal,1,4.323,4.323,4.341,90,90,90,0,-2.351,0.165,0.162,16.227,2.17
HgVO3,Hg,V,2,4,1.14,0.58,orthorhombic,3,5.372,5.384,7.796,90,90,90,0.65,-1.579,0.147,0.201,11.274,1.811
HgWO3,Hg,W,1,5,1.19,0.62,cubic,0,3.966,3.966,3.966,90,90,90,0,-1.52,0.437,0,12.472,3.652
HgZrO3,Hg,Zr,2,4,1.14,0.72,rhombohedral,2,5.821,5.821,5.821,58.2,58.2,58.2,1.717,-2.276,0.086,0,13.384,0.184
HoAgO3,Ho,Ag,3,3,1.12,0.75,cubic,0,4.012,4.012,4.012,90,90,90,0,-1.406,0.644,0,12.913,-0.655
HoAlO3,Ho,Al,3,3,1.12,0.54,orthorhombic,3,5.149,5.345,7.36,90,90,90,6.137,-3.595,-0.025,0,10.127,6.291
HoAsO3,Ho,As,3,3,1.12,0.58,cubic,0,3.985,3.985,3.985,90,90,90,0,-1.881,0.815,0,12.658,2.079
HoBO3,Ho,B,3,3,1.12,0.27,cubic,0,3.443,3.443,3.443,90,90,90,3.049,-2.528,0.797,0,8.163,5.471
HoCeO3,Ho,Ce,2,4,1.12,0.87,cubic,0,4.532,4.532,4.532,90,90,90,0,-2.274,1.423,0,18.614,-3.213
HoCoO3,Ho,Co,3,3,1.12,0.61,orthorhombic,3,5.157,5.558,7.44,90,90,90,1.399,-2.54,0.023,0,10.662,2.32
HoCrO3,Ho,Cr,3,3,1.12,0.62,orthorhombic,3,5.247,5.561,7.561,90,90,90,2.474,-3.211,-0.033,0.6,11.031,4.185
HoCuO3,Ho,Cu,3,3,1.12,0.54,orthorhombic,3,5.195,5.84,7.163,90,90,90,0,-2.288,0.051,0,10.867,0.608
HoFeO3,Ho,Fe,3,3,1.12,0.65,orthorhombic,3,5.264,5.587,7.597,90,90,90,1.206,-2.789,-0.027,1,11.17,3.094
HoGaO3,Ho,Ga,3,3,1.12,0.62,orthorhombic,3,5.239,5.542,7.536,90,90,90,4.108,-2.978,0.02,0,10.94,4.388
HoGeO3,Ho,Ge,2,4,1.12,0.53,cubic,0,3.86,3.86,3.86,90,90,90,0,-2.193,0.594,0,11.5,2.734
HoHfO3,Ho,Hf,2,4,1.12,0.71,cubic,0,4.068,4.068,4.068,90,90,90,0,-3.106,0.558,0,13.461,4.459