Chemical formula,A,B,Valence A,Valence B,Radius A [ang],Radius B [ang],Crystal Type,Crystal Type,a [ang],b [ang],c [ang],alpha [deg],beta [deg],gamma [deg],Band gap [eV],Formation energy [eV/atom],Stability [eV/atom],Magnetic moment [mu_B],Volume per atom [A^3/atom],Vacancy energy [eV/O atom]
SnHoO3,Sn,Ho,3,3,0.81,0.9,cubic,0,4.301,4.301,4.301,90,90,90,0,-1.972,0.885,-0.008,15.913,-2.231
SnInO3,Sn,In,3,3,0.81,0.8,cubic,0,4.142,4.142,4.142,90,90,90,0,-1.037,0.779,-,14.207,-1.427
SnIrO3,Sn,Ir,2,4,0.81,0.63,cubic,0,3.974,3.974,3.974,90,90,90,0,-0.815,0.677,0.001,12.553,1.392
SnLaO3,Sn,La,3,3,0.81,1.03,cubic,0,4.491,4.491,4.491,90,90,90,0,-1.78,1.044,0.001,18.121,-3.04
SnLuO3,Sn,Lu,3,3,0.81,0.86,cubic,0,4.231,4.231,4.231,90,90,90,0,-2.093,0.782,-0.199,15.153,-0.995
SnMnO3,Sn,Mn,2,4,0.81,0.53,cubic,0,3.845,3.845,3.845,90,90,90,0,-1.495,0.532,0.621,11.371,0.727
SnMoO3,Sn,Mo,2,4,0.81,0.65,orthorhombic,3,5.584,5.658,8.02,90,90,90,0,-1.681,0.227,0.003,12.669,4.32
SnNbO3,Sn,Nb,2,4,0.81,0.68,tetragonal,1,4.05,4.086,4.086,90,90,90,0,-2.11,0.206,0,13.523,4.737
SnNdO3,Sn,Nd,3,3,0.81,0.98,cubic,0,4.465,4.465,4.465,90,90,90,0,-1.732,1.046,0,17.801,-3.327
SnNiO3,Sn,Ni,2,4,0.81,0.48,cubic,0,3.745,3.745,3.745,90,90,90,0,-0.885,0.784,0.221,10.506,-2.268
SnPbO3,Sn,Pb,2,4,0.81,0.78,tetragonal,1,3.886,3.886,5.059,90,90,90,0,-1.134,0.579,-,15.282,1.229
SnPdO3,Sn,Pd,2,4,0.81,0.62,cubic,0,3.983,3.983,3.983,90,90,90,0,-0.658,0.774,-,12.636,0.36
SnPrO3,Sn,Pr,2,4,0.81,0.85,cubic,0,4.486,4.486,4.486,90,90,90,0,-1.693,1.066,-0.199,18.05,-3.434
SnReO3,Sn,Re,2,4,0.81,0.63,orthorhombic,3,5.52,5.571,8.217,90,90,90,0,-1.345,0.34,0,12.633,3.771
SnRhO3,Sn,Rh,2,4,0.81,0.6,cubic,0,3.95,3.95,3.95,90,90,90,0,-0.88,0.604,0.002,12.323,0.885
SnRuO3,Sn,Ru,2,4,0.81,0.62,orthorhombic,3,5.372,5.536,7.833,90,90,90,0,-1.225,0.327,0.002,11.647,2.761
SnSbO3,Sn,Sb,3,3,0.81,0.76,tetragonal,1,4.135,4.135,4.372,90,90,90,0,-1.382,0.316,-,14.951,2.386
SnScO3,Sn,Sc,3,3,0.81,0.75,cubic,0,4.064,4.064,4.064,90,90,90,0,-2.122,0.675,-0.01,13.425,-0.585
SnSiO3,Sn,Si,2,4,0.81,0.4,tetragonal,1,3.477,3.477,4.652,90,90,90,0.865,-2.097,0.362,-,11.247,5.029
SnSmO3,Sn,Sm,3,3,0.81,0.96,cubic,0,4.418,4.418,4.418,90,90,90,0,-1.816,0.992,-0.2,17.249,-2.933
SnTaO3,Sn,Ta,2,4,0.81,0.68,tetragonal,1,4.045,4.069,4.069,90,90,90,0,-2.223,0.308,0,13.398,5.007
SnTbO3,Sn,Tb,2,4,0.81,0.76,cubic,0,4.337,4.337,4.337,90,90,90,0,-1.8,0.916,-0.196,16.311,-2.406
SnTeO3,Sn,Te,2,4,0.81,0.97,cubic,0,4.235,4.235,4.235,90,90,90,0,-1.032,0.53,-,15.193,2.517
SnThO3,Sn,Th,2,4,0.81,0.94,cubic,0,4.567,4.567,4.567,90,90,90,0.645,-2.51,0.647,0,19.05,3.095
SnTiO3,Sn,Ti,2,4,0.81,0.61,tetragonal,1,3.867,3.867,4.192,90,90,90,0.744,-2.488,0.078,0,12.534,4.657
SnTlO3,Sn,Tl,3,3,0.81,0.89,orthorhombic,3,5.694,5.824,8.665,90,90,90,0,-1.169,0.357,-,14.367,-2.983
SnTmO3,Sn,Tm,3,3,0.81,0.88,cubic,0,4.263,4.263,4.263,90,90,90,0,-2.049,0.825,-0.198,15.495,-1.145
SnUO3,Sn,U,2,4,0.81,0.89,cubic,0,4.372,4.372,4.372,90,90,90,0,-2.396,0.511,0.274,16.719,3.267
SnVO3,Sn,V,2,4,0.81,0.58,orthorhombic,3,5.411,5.574,7.672,90,90,90,0,-2.01,0.198,0.351,11.57,3.118
SnWO3,Sn,W,2,4,0.81,0.66,cubic,0,3.997,3.997,3.997,90,90,90,0,-1.678,0.279,0,12.775,4.517
SnYO3,Sn,Y,3,3,0.81,0.9,cubic,0,4.336,4.336,4.336,90,90,90,0,-1.911,0.922,0,16.31,-2.492
SnYbO3,Sn,Yb,3,3,0.81,0.87,orthorhombic,3,5.62,5.644,8.395,90,90,90,0.788,-2.424,0.262,-,13.313,-5.343
SnZrO3,Sn,Zr,2,4,0.81,0.72,tetragonal,1,4.051,4.051,4.359,90,90,90,1.659,-2.627,0.167,0,14.31,4.877
SrCeO3,Sr,Ce,2,4,1.44,0.87,orthorhombic,3,6.143,6.377,8.842,90,90,90,0,-2.806,0.191,0.2,17.32,-0.685
SrCoO3,Sr,Co,2,4,1.44,0.53,orthorhombic,3,5.398,5.403,7.835,90,90,90,0,-1.904,0.014,0.629,11.426,0.687
SrCrO3,Sr,Cr,2,4,1.44,0.55,orthorhombic,3,5.457,5.457,7.664,90,90,90,0.777,-2.561,0.041,0.4,11.412,1.791
SrFeO3,Sr,Fe,2,4,1.44,0.59,orthorhombic,3,5.447,5.454,7.707,90,90,90,0,-2.188,-0.015,0.808,11.449,1.378
SrGeO3,Sr,Ge,2,4,1.44,0.53,cubic,0,3.836,3.836,3.836,90,90,90,0.308,-2.434,0.143,-,11.292,4.097
SrHfO3,Sr,Hf,2,4,1.44,0.71,orthorhombic,3,5.751,5.792,8.159,90,90,90,4.43,-3.653,0,0,13.589,6.856
SrIrO3,Sr,Ir,2,4,1.44,0.63,orthorhombic,3,5.55,5.674,7.891,90,90,90,0,-1.838,0.025,0.048,12.424,1.995
SrMnO3,Sr,Mn,2,4,1.44,0.53,orthorhombic,3,5.425,5.446,7.703,90,90,90,0,-2.368,0.041,0.6,11.38,1.412
SrMoO3,Sr,Mo,2,4,1.44,0.65,orthorhombic,3,5.632,5.635,7.968,90,90,90,0,-2.611,0.026,0.001,12.645,5.296
SrNbO3,Sr,Nb,2,4,1.44,0.68,orthorhombic,3,5.71,5.732,8.108,90,90,90,0,-3.022,-0.011,0,13.268,5.907
SrNiO3,Sr,Ni,2,4,1.44,0.48,orthorhombic,3,5.434,5.442,7.686,90,90,90,0,-1.665,0.127,0.001,11.363,0.19
SrPbO3,Sr,Pb,2,4,1.44,0.78,orthorhombic,3,5.881,6.041,8.389,90,90,90,1.042,-1.995,-0.043,-,14.902,1.78
SrPdO3,Sr,Pd,2,4,1.44,0.62,orthorhombic,3,5.588,5.683,7.927,90,90,90,0.299,-1.636,-0.058,-,12.586,0.177
SrPrO3,Sr,Pr,2,4,1.44,0.85,orthorhombic,3,6.11,6.342,8.771,90,90,90,0,-2.838,0.187,0.2,16.993,-0.673
SrReO3,Sr,Re,2,4,1.44,0.63,rhombohedral,2,5.59,5.59,5.59,60.4,60.4,60.4,0,-2.232,0.119,0.006,12.456,4.409
SrRhO3,Sr,Rh,2,4,1.44,0.6,orthorhombic,3,5.553,5.635,7.882,90,90,90,0,-1.856,-0.006,0.2,12.33,1.774
SrRuO3,Sr,Ru,2,4,1.44,0.62,orthorhombic,3,5.574,5.586,7.896,90,90,90,0,-2.024,-0.013,0.396,12.293,3.136
SrSiO3,Sr,Si,2,4,1.44,0.4,tetragonal,1,3.465,3.465,4.662,90,90,90,2.148,-2.989,0.287,-,11.198,6.066
SrSnO3,Sr,Sn,2,4,1.44,0.69,orthorhombic,3,5.733,5.766,8.131,90,90,90,2.116,-2.495,-0.042,-,13.439,3.937
SrTaO3,Sr,Ta,2,4,1.44,0.68,orthorhombic,3,5.691,5.703,8.078,90,90,90,0,-3.121,0.044,0,13.11,6.161
SrTbO3,Sr,Tb,2,4,1.44,0.76,orthorhombic,3,5.979,6.167,8.507,90,90,90,0,-2.854,0.163,0.2,15.685,-0.493
SrTeO3,Sr,Te,2,4,1.44,0.97,rhombohedral,2,5.926,5.926,5.926,60.8,60.8,60.8,0.441,-2.018,0.193,-,14.971,3.152
SrThO3,Sr,Th,2,4,1.44,0.94,orthorhombic,3,6.145,6.331,8.831,90,90,90,4.252,-3.649,0.071,0,17.178,5.721
SrTiO3,Sr,Ti,2,4,1.44,0.61,rhombohedral,2,5.533,5.533,5.533,60.1,60.1,60.1,2.009,-3.354,-0.046,0,12.003,5.504
SrUO3,Sr,U,2,4,1.44,0.89,orthorhombic,3,6.026,6.228,8.664,90,90,90,2.645,-3.487,-0.018,0.4,16.258,5.193
SrVO3,Sr,V,2,4,1.44,0.58,orthorhombic,3,5.437,5.441,7.904,90,90,90,0,-2.882,-0.002,0.2,11.693,3.786
SrWO3,Sr,W,2,4,1.44,0.66,cubic,0,3.993,3.993,3.993,90,90,90,0,-2.596,0.149,0,12.736,5.437
SrZrO3,Sr,Zr,2,4,1.44,0.72,orthorhombic,3,5.797,5.863,8.234,90,90,90,3.938,-3.502,-0.081,0,13.995,-
TaBO3,Ta,B,4,2,0.68,0.27,cubic,0,3.386,3.386,3.386,90,90,90,0,-1.101,1.649,0.086,7.765,1.296
TaBeO3,Ta,Be,4,2,0.68,0.45,cubic,0,3.394,3.394,3.394,90,90,90,0,-1.946,0.993,0.001,7.821,3.022
TaBiO3,Ta,Bi,1,5,0.74,0.76,cubic,0,4.281,4.281,4.281,90,90,90,0,-0.046,2.423,0.58,15.692,-5.978
TaCeO3,Ta,Ce,2,4,0.74,0.87,cubic,0,4.507,4.507,4.507,90,90,90,0,-0.711,2.478,0.396,18.308,-13.22
TaCoO3,Ta,Co,2,4,0.74,0.53,cubic,0,3.629,3.629,3.629,90,90,90,0,-0.878,1.6,-0.112,9.555,-0.411
TaCrO3,Ta,Cr,1,5,0.74,0.49,orthorhombic,3,5.225,6.038,6.765,90,90,90,0,-2.33,0.332,0.599,10.669,-2.758
TaFeO3,Ta,Fe,2,4,0.74,0.59,cubic,0,3.777,3.777,3.777,90,90,90,0,-0.862,1.698,1.261,10.777,-4.452
TaGeO3,Ta,Ge,2,4,0.74,0.53,cubic,0,3.798,3.798,3.798,90,90,90,0,-0.758,1.717,0.533,10.96,0.27
TaHfO3,Ta,Hf,2,4,0.74,0.71,cubic,0,4.056,4.056,4.056,90,90,90,0,-1.814,1.366,0.594,13.342,-3.616
TaIrO3,Ta,Ir,1,5,0.74,0.57,cubic,0,3.914,3.914,3.914,90,90,90,0,-0.109,2.242,0.339,11.992,-7.068
TaMnO3,Ta,Mn,2,4,0.74,0.53,cubic,0,3.792,3.792,3.792,90,90,90,0,-1.071,1.599,1.164,10.902,-5.179
TaMoO3,Ta,Mo,1,5,0.74,0.61,cubic,0,3.921,3.921,3.921,90,90,90,0,-0.874,1.64,0.52,12.056,-2.235
TaNbO3,Ta,Nb,1,5,0.74,0.64,cubic,0,4.006,4.006,4.006,90,90,90,0,-1.255,1.367,0.588,12.854,-0.321
TaNiO3,Ta,Ni,2,4,0.74,0.48,cubic,0,3.659,3.659,3.659,90,90,90,0,-0.846,1.629,0.488,9.797,-0.846
TaPbO3,Ta,Pb,2,4,0.74,0.78,rhombohedral,2,5.603,5.603,5.603,71.4,71.4,71.4,0,-1.911,0.544,0,15.337,-1.098
TaPdO3,Ta,Pd,2,4,0.74,0.62,cubic,0,3.924,3.924,3.924,90,90,90,0,-0.13,2.191,0.338,12.087,-5.715
TaPrO3,Ta,Pr,2,4,0.74,0.85,cubic,0,4.466,4.466,4.466,90,90,90,0,-0.801,2.424,0.397,17.812,-12.693
TaReO3,Ta,Re,1,5,0.74,0.58,cubic,0,3.911,3.911,3.911,90,90,90,0,-0.503,1.945,0.403,11.968,-4.977
TaRhO3,Ta,Rh,2,4,0.74,0.6,cubic,0,3.878,3.878,3.878,90,90,90,0,-0.31,2.037,0.304,11.667,-4.987
TaRuO3,Ta,Ru,1,5,0.74,0.57,cubic,0,3.865,3.865,3.865,90,90,90,0,-0.406,1.975,0.188,11.543,-4.611
TaSbO3,Ta,Sb,1,5,0.74,0.6,cubic,0,4.103,4.103,4.103,90,90,90,0,-0.34,2.114,0.626,13.811,-5.239
TaSiO3,Ta,Si,2,4,0.74,0.4,cubic,0,3.612,3.612,3.612,90,90,90,0,-1.291,1.487,0.518,9.427,1.802
TaSnO3,Ta,Sn,2,4,0.74,0.69,cubic,0,4.033,4.033,4.033,90,90,90,0,-0.628,1.903,0.578,13.115,-2.986
TaTbO3,Ta,Tb,2,4,0.74,0.76,cubic,0,4.263,4.263,4.263,90,90,90,0,-1.108,2.084,0.399,15.49,-9.755
TaTeO3,Ta,Te,2,4,0.74,0.97,cubic,0,4.177,4.177,4.177,90,90,90,0,-0.061,2.329,0.602,14.572,-6.409
TaThO3,Ta,Th,2,4,0.74,0.94,cubic,0,4.527,4.527,4.527,90,90,90,0,-1.46,1.965,0.589,18.552,-1.362
TaTiO3,Ta,Ti,2,4,0.74,0.61,cubic,0,3.839,3.839,3.839,90,90,90,0,-1.708,1.168,0.468,11.319,-3.211
TaUO3,Ta,U,1,5,0.74,0.76,cubic,0,4.323,4.323,4.323,90,90,90,0,-1.439,1.729,0.966,16.16,0.396
TaVO3,Ta,V,2,4,0.74,0.58,cubic,0,3.805,3.805,3.805,90,90,90,0,-1.347,1.388,0.773,11.017,1.145
TaWO3,Ta,W,1,5,0.74,0.62,cubic,0,3.933,3.933,3.933,90,90,90,0,-0.874,1.643,0.56,12.172,-0.91
TaZrO3,Ta,Zr,2,4,0.74,0.72,cubic,0,4.109,4.109,4.109,90,90,90,0,-1.62,1.436,0.594,13.872,0.504
TbAlO3,Tb,Al,3,3,1.1,0.54,orthorhombic,3,5.198,5.336,7.404,90,90,90,5.845,-3.448,-0.02,0,10.267,6.336
TbAsO3,Tb,As,3,3,1.1,0.58,cubic,0,3.994,3.994,3.994,90,90,90,0,-1.802,0.748,0,12.745,2.202
TbBO3,Tb,B,4,2,0.88,0.27,cubic,0,3.465,3.465,3.465,90,90,90,2.961,-2.39,0.759,0,8.318,5.397
TbBaO3,Tb,Ba,4,2,0.88,1.35,orthorhombic,3,6.5,6.766,8.504,90,90,90,0.64,-2.69,0.271,0.201,18.699,-6.725
TbBeO3,Tb,Be,4,2,0.88,0.45,tetragonal,1,3.326,3.326,4.337,90,90,90,0,-2.663,0.304,0.044,9.596,-0.866
TbBiO3,Tb,Bi,1,5,1.1,0.76,cubic,0,4.365,4.365,4.365,90,90,90,0,-1.418,1.099,0,16.631,0.902
TbCaO3,Tb,Ca,4,2,0.88,1,cubic,0,4.101,4.101,4.101,90,90,90,0,-2.043,1.028,0.2,13.791,-2.782
TbCdO3,Tb,Cd,4,2,0.88,0.95,cubic,0,4.091,4.091,4.091,90,90,90,0,-1.494,0.781,0,13.689,-0.941
TbCeO3,Tb,Ce,2,4,1.1,0.87,cubic,0,4.536,4.536,4.536,90,90,90,0.308,-2.207,1.333,0,18.667,-2.959
TbCoO3,Tb,Co,3,3,1.1,0.61,orthorhombic,3,5.2,5.551,7.512,90,90,90,0,-2.398,0.009,0.401,10.841,2.511
TbCrO3,Tb,Cr,3,3,1.1,0.62,orthorhombic,3,5.286,5.578,7.603,90,90,90,2.475,-3.064,-0.043,0.6,11.209,4.313
TbCuO3,Tb,Cu,3,3,1.1,0.54,orthorhombic,3,5.23,5.858,7.228,90,90,90,0,-2.142,-0.04,0,11.072,0.77
TbDyO3,Tb,Dy,4,2,0.88,1.07,cubic,0,4.263,4.263,4.263,90,90,90,1.746,-2.802,0.903,0,15.489,1.148
TbFeO3,Tb,Fe,3,3,1.1,0.65,orthorhombic,3,5.301,5.607,7.629,90,90,90,1.168,-2.644,-0.039,1,11.338,3.264
TbGaO3,Tb,Ga,3,3,1.1,0.62,orthorhombic,3,5.285,5.562,7.586,90,90,90,3.981,-2.833,0.015,0,11.149,4.521
TbGeO3,Tb,Ge,2,4,1.1,0.53,cubic,0,3.873,3.873,3.873,90,90,90,0,-2.107,0.523,0,11.618,2.859
TbHfO3,Tb,Hf,2,4,1.1,0.71,orthorhombic,3,5.474,6.064,7.538,90,90,90,0,-3.308,0.2,0.003,12.51,4.589
TbHgO3,Tb,Hg,4,2,0.88,1.02,cubic,0,4.186,4.186,4.186,90,90,90,0,-1.075,0.887,0,14.671,-0.904
TbHoO3,Tb,Ho,4,2,0.88,0.9,cubic,0,4.239,4.239,4.239,90,90,90,1.749,-2.854,0.863,0,15.23,1.499
TbIrO3,Tb,Ir,1,5,1.1,0.57,cubic,0,3.953,3.953,3.953,90,90,90,0,-1.54,0.719,0,12.356,-0.798
TbMgO3,Tb,Mg,4,2,0.88,0.72,orthorhombic,3,5.371,5.728,7.477,90,90,90,0,-2.788,0.18,0.2,11.503,-1.354
TbMnO3,Tb,Mn,3,3,1.1,0.65,orthorhombic,3,5.301,5.731,7.508,90,90,90,0.258,-2.822,0.002,0.8,11.406,3.52
TbMoO3,Tb,Mo,1,5,1.1,0.61,cubic,0,3.954,3.954,3.954,90,90,90,0,-2.173,0.583,0.004,12.366,1.824
TbNbO3,Tb,Nb,1,5,1.1,0.64,cubic,0,4.025,4.025,4.025,90,90,90,0,-2.497,0.576,0.001,13.042,3.209
TbNiO3,Tb,Ni,3,3,1.1,0.6,orthorhombic,3,5.191,5.512,7.43,90,90,90,0,-2.269,0.008,0.199,10.631,1.113
TbPbO3,Tb,Pb,2,4,1.1,0.78,cubic,0,4.257,4.257,4.257,90,90,90,0,-1.39,1.007,0,15.428,0.578
TbPdO3,Tb,Pd,2,4,1.1,0.62,orthorhombic,3,5.4,5.895,7.543,90,90,90,0,-2.07,-0.03,0.005,12.007,-0.016
TbPrO3,Tb,Pr,2,4,1.1,0.85,cubic,0,4.491,4.491,4.491,90,90,90,0.479,-2.304,1.264,0,18.119,-1.416
TbReO3,Tb,Re,1,5,1.1,0.58,cubic,0,3.946,3.946,3.946,90,90,90,0,-1.8,0.749,0.163,12.293,0.373
TbRhO3,Tb,Rh,2,4,1.1,0.6,cubic,0,3.916,3.916,3.916,90,90,90,0,-1.747,0.537,0,12.011,-0.048
TbRuO3,Tb,Ru,1,5,1.1,0.57,cubic,0,3.915,3.915,3.915,90,90,90,0,-1.802,0.56,0.125,11.999,0.762
TbSbO3,Tb,Sb,3,3,1.1,0.76,cubic,0,4.208,4.208,4.208,90,90,90,0,-1.633,0.937,-0.001,14.898,1.071
TbScO3,Tb,Sc,3,3,1.1,0.75,orthorhombic,3,5.439,5.728,7.896,90,90,90,4.705,-3.665,0.019,0,12.3,5.096
TbSiO3,Tb,Si,3,3,1.1,0.4,cubic,0,3.69,3.69,3.69,90,90,90,0,-2.524,0.64,0,10.048,4.622
TbSmO3,Tb,Sm,4,2,0.88,1.22,cubic,0,4.383,4.383,4.383,90,90,90,1.073,-2.535,1.096,0,16.841,-0.748
TbSnO3,Tb,Sn,2,4,1.1,0.69,cubic,0,4.103,4.103,4.103,90,90,90,0,-1.904,0.811,0,13.819,2.278
TbSrO3,Tb,Sr,4,2,0.88,1.18,orthorhombic,3,5.845,5.857,9.725,90,90,90,0,-2.747,0.27,0.106,16.647,-3.53
TbTaO3,Tb,Ta,1,5,1.1,0.64,cubic,0,4.003,4.003,4.003,90,90,90,0,-2.574,0.617,0.001,12.83,3.252
TbTeO3,Tb,Te,2,4,1.1,0.97,cubic,0,4.234,4.234,4.234,90,90,90,0,-1.32,1.096,0.002,15.185,0.9
TbThO3,Tb,Th,2,4,1.1,0.94,cubic,0,4.551,4.551,4.551,90,90,90,0,-2.666,1.021,0.009,18.854,2.238
TbTiO3,Tb,Ti,2,4,1.1,0.61,orthorhombic,3,5.318,5.678,7.652,90,90,90,0,-3.326,0.015,0.2,11.554,4.797
TbTmO3,Tb,Tm,4,2,0.88,1.03,cubic,0,4.192,4.192,4.192,90,90,90,1.89,-2.963,0.783,0,14.73,2.365
TbUO3,Tb,U,2,4,1.1,0.89,cubic,0,4.379,4.379,4.379,90,90,90,0,-2.464,1.035,0.556,16.794,1.95
TbVO3,Tb,V,2,4,1.1,0.58,orthorhombic,3,5.318,5.67,7.638,90,90,90,1.093,-3.132,-0.037,0.4,11.514,4.039
TbWO3,Tb,W,1,5,1.1,0.62,cubic,0,3.961,3.961,3.961,90,90,90,0,-2.094,0.666,0,12.425,1.37
TbZnO3,Tb,Zn,4,2,0.88,0.74,orthorhombic,3,5.256,5.773,7.504,90,90,90,0,-2.311,0.129,0,11.383,-0.127
TbZrO3,Tb,Zr,2,4,1.1,0.72,cubic,0,4.122,4.122,4.122,90,90,90,0,-2.857,0.567,0,14.011,4.219
TeBiO3,Te,Bi,1,5,0.97,0.76,cubic,0,4.308,4.308,4.308,90,90,90,0,-0.437,0.931,-,15.991,-1.84
TeCeO3,Te,Ce,2,4,0.97,0.87,cubic,0,4.567,4.567,4.567,90,90,90,0,-1.107,1.313,0,19.056,-7.427
TeCoO3,Te,Co,2,4,0.97,0.53,cubic,0,3.746,3.746,3.746,90,90,90,0,-0.626,0.652,-0.009,10.514,1.913
TeCrO3,Te,Cr,2,4,0.97,0.55,cubic,0,3.872,3.872,3.872,90,90,90,0,-1.264,0.561,0.58,11.61,2.348
TeFeO3,Te,Fe,2,4,0.97,0.59,cubic,0,3.888,3.888,3.888,90,90,90,0,-0.808,0.615,0.951,11.754,-0.992
TeGeO3,Te,Ge,2,4,0.97,0.53,cubic,0,3.872,3.872,3.872,90,90,90,0,-0.851,0.676,-,11.607,1.866
TeHfO3,Te,Hf,2,4,0.97,0.71,cubic,0,4.122,4.122,4.122,90,90,90,0,-2.079,0.614,0,14.002,2.379
TeIrO3,Te,Ir,2,4,0.97,0.63,cubic,0,3.976,3.976,3.976,90,90,90,0,-0.313,0.786,-0.001,12.569,0.617
TeMnO3,Te,Mn,2,4,0.97,0.53,cubic,0,3.878,3.878,3.878,90,90,90,0,-1.028,0.657,0.74,11.661,2.225
TeMoO3,Te,Mo,2,4,0.97,0.65,cubic,0,4,4,4,90,90,90,0,-1.078,0.652,0.013,12.801,2.382
TeNbO3,Te,Nb,1,5,0.97,0.64,cubic,0,4.077,4.077,4.077,90,90,90,0,-1.527,0.654,-0.001,13.55,2.841
TeNiO3,Te,Ni,2,4,0.97,0.48,cubic,0,3.773,3.773,3.773,90,90,90,0,-0.568,0.75,0.3,10.741,-1.076
TePbO3,Te,Pb,2,4,0.97,0.78,orthorhombic,3,6.24,6.604,8.069,90,90,90,1.71,-1.353,0.022,-,16.626,0.913
TePdO3,Te,Pd,2,4,0.97,0.62,cubic,0,3.994,3.994,3.994,90,90,90,0,-0.217,0.823,-,12.741,-0.898
TePrO3,Te,Pr,2,4,0.97,0.85,cubic,0,4.527,4.527,4.527,90,90,90,0,-1.165,1.277,0,18.551,-7.146
TeRhO3,Te,Rh,2,4,0.97,0.6,cubic,0,3.953,3.953,3.953,90,90,90,0,-0.408,0.683,0,12.356,0.665
TeRuO3,Te,Ru,1,5,0.97,0.57,cubic,0,3.947,3.947,3.947,90,90,90,0,-0.524,0.662,0.039,12.299,1.096
TeSbO3,Te,Sb,1,5,0.97,0.6,cubic,0,4.128,4.128,4.128,90,90,90,0,-0.691,0.69,-,14.064,-0.481
TeSiO3,Te,Si,2,4,0.97,0.4,cubic,0,3.722,3.722,3.722,90,90,90,0,-1.27,0.964,-,10.312,1.411
TeSnO3,Te,Sn,2,4,0.97,0.69,cubic,0,4.093,4.093,4.093,90,90,90,0,-0.903,0.659,-,13.718,1.638
TeTaO3,Te,Ta,1,5,0.97,0.64,cubic,0,4.057,4.057,4.057,90,90,90,0,-1.705,0.686,0,13.359,3.271
TeTbO3,Te,Tb,2,4,0.97,0.76,cubic,0,4.352,4.352,4.352,90,90,90,0,-1.332,1.084,0.001,16.483,-5.397
TeTiO3,Te,Ti,2,4,0.97,0.61,cubic,0,3.937,3.937,3.937,90,90,90,0,-1.754,0.581,-0.003,12.204,2.349
TeUO3,Te,U,1,5,0.97,0.76,cubic,0,4.368,4.368,4.368,90,90,90,0,-2.051,0.63,-0.117,16.672,2.696
TeVO3,Te,V,2,4,0.97,0.58,cubic,0,3.897,3.897,3.897,90,90,90,0,-1.322,0.579,-0.356,11.833,1.88
TeWO3,Te,W,2,4,0.97,0.66,cubic,0,4.005,4.005,4.005,90,90,90,0,-1.135,0.822,0,12.849,2.769
TeZrO3,Te,Zr,2,4,0.97,0.72,cubic,0,4.173,4.173,4.173,90,90,90,0,-1.913,0.66,0,14.536,1.661
ThAsO3,Th,As,4,2,1.21,0.58,cubic,0,4.075,4.075,4.075,90,90,90,0,-1.892,1.132,0,13.529,1.662
ThBO3,Th,B,4,2,1.21,0.27,cubic,0,3.674,3.674,3.674,90,90,90,0,-2.27,1.18,0,9.917,4.341
ThBaO3,Th,Ba,4,2,1.21,1.35,orthorhombic,3,6.799,6.829,8.21,90,90,90,2.709,-3.345,0.275,0,19.059,-2.473
ThBeO3,Th,Be,4,2,1.21,0.45,orthorhombic,3,5.182,5.221,7.325,90,90,90,3.063,-3.359,0.369,0,9.908,5.796
ThCaO3,Th,Ca,4,2,1.21,1,cubic,0,4.151,4.151,4.151,90,90,90,0.815,-2.698,1.122,0,14.304,-
ThCdO3,Th,Cd,4,2,1.21,0.95,cubic,0,4.163,4.163,4.163,90,90,90,0,-1.89,1.147,0,14.427,0.436
ThCeO3,Th,Ce,4,2,1.21,1.01,cubic,0,4.54,4.54,4.54,90,90,90,0,-2.346,1.37,0.005,18.717,0.544
ThCoO3,Th,Co,4,2,1.21,0.75,orthorhombic,3,5.409,5.933,7.727,90,90,90,1.864,-2.947,0.093,0.6,12.397,3.147
ThCrO3,Th,Cr,4,2,1.21,0.8,orthorhombic,3,5.486,6.329,7.588,90,90,90,2.02,-3.282,0.088,0.8,13.172,4.11
ThCuO3,Th,Cu,4,2,1.21,0.73,orthorhombic,3,5.328,6.293,7.458,90,90,90,0,-2.745,0.12,0,12.504,2.296
ThDyO3,Th,Dy,4,2,1.21,1.07,cubic,0,4.282,4.282,4.282,90,90,90,0,-2.934,0.897,0,15.705,3.257
ThFeO3,Th,Fe,4,2,1.21,0.78,cubic,0,3.896,3.896,3.896,90,90,90,0,-2.539,0.611,0.85,11.828,3.482
ThGeO3,Th,Ge,4,2,1.21,0.73,cubic,0,4.011,4.011,4.011,90,90,90,0,-2.114,1.026,0,12.904,1.598
ThHfO3,Th,Hf,4,2,1.21,0.71,cubic,0,4.107,4.107,4.107,90,90,90,0,-3.036,0.658,0.002,13.852,3.617
ThHgO3,Th,Hg,4,2,1.21,1.02,cubic,0,4.248,4.248,4.248,90,90,90,0,-1.331,1.393,0,15.33,-1.766
ThHoO3,Th,Ho,4,2,1.21,0.9,cubic,0,4.26,4.26,4.26,90,90,90,0,-2.983,0.86,0,15.464,3.446
ThInO3,Th,In,4,2,1.21,0.8,cubic,0,4.32,4.32,4.32,90,90,90,0,-2.09,1.067,0,16.127,-
ThMgO3,Th,Mg,4,2,1.21,0.72,orthorhombic,3,5.46,5.794,7.806,90,90,90,5.339,-3.599,0.122,0,12.347,5.269
ThMnO3,Th,Mn,4,2,1.21,0.83,cubic,0,3.95,3.95,3.95,90,90,90,0,-2.74,0.617,0.91,12.324,3.746
ThMoO3,Th,Mo,4,2,1.21,0.65,cubic,0,4.002,4.002,4.002,90,90,90,0,-2.309,0.88,0.01,12.816,1.416
ThNbO3,Th,Nb,4,2,1.21,0.72,cubic,0,4.066,4.066,4.066,90,90,90,0,-2.593,0.811,0,13.44,2.293
ThNiO3,Th,Ni,4,2,1.21,0.69,orthorhombic,3,5.38,5.846,7.711,90,90,90,3.389,-2.942,0.096,0.4,12.128,4.005
ThPdO3,Th,Pd,4,2,1.21,0.86,cubic,0,4.031,4.031,4.031,90,90,90,0,-1.925,0.877,0,13.1,0.306
ThReO3,Th,Re,4,2,1.21,0.63,cubic,0,3.993,3.993,3.993,90,90,90,0,-1.953,1.102,0.019,12.73,0.644
ThRuO3,Th,Ru,4,2,1.21,0.68,cubic,0,3.966,3.966,3.966,90,90,90,0,-2.076,0.846,0,12.477,0.279
ThSiO3,Th,Si,4,2,1.21,0.4,cubic,0,3.881,3.881,3.881,90,90,90,0,-2.362,1.119,0,11.695,1.378
ThSmO3,Th,Sm,4,2,1.21,1.22,cubic,0,4.399,4.399,4.399,90,90,90,0,-2.675,1.101,0,17.026,2.33
ThSnO3,Th,Sn,4,2,1.21,0.69,cubic,0,4.193,4.193,4.193,90,90,90,0,-1.912,1.245,0.002,14.743,-0.453
ThSrO3,Th,Sr,4,2,1.21,1.18,cubic,0,4.407,4.407,4.407,90,90,90,0,-2.039,1.681,0,17.122,-4.355
ThTaO3,Th,Ta,4,2,1.21,0.72,cubic,0,4.046,4.046,4.046,90,90,90,0,-2.63,0.795,0,13.249,2.376
ThTbO3,Th,Tb,4,2,1.21,0.92,cubic,0,4.307,4.307,4.307,90,90,90,0,-2.751,0.936,0,15.979,3.063
ThTeO3,Th,Te,4,2,1.21,0.97,cubic,0,4.288,4.288,4.288,90,90,90,0,-1.365,1.578,0.005,15.774,-0.902
ThTiO3,Th,Ti,4,2,1.21,0.86,orthorhombic,3,5.502,5.982,7.669,90,90,90,0,-3.355,0.284,0.001,12.621,4.39
ThTmO3,Th,Tm,4,2,1.21,1.03,cubic,0,4.218,4.218,4.218,90,90,90,0,-3.086,0.786,0,15.013,3.804
ThUO3,Th,U,4,2,1.21,1.03,cubic,0,4.846,4.846,4.846,90,90,90,0,-2.146,1.542,0.769,22.757,-2.369
ThVO3,Th,V,4,2,1.21,0.79,orthorhombic,3,5.476,6.015,7.869,90,90,90,2.332,-3.392,0.055,0.6,12.961,3.91
ThWO3,Th,W,4,2,1.21,0.66,cubic,0,4.007,4.007,4.007,90,90,90,0,-2.188,1.007,0.001,12.87,1.059
ThZnO3,Th,Zn,4,2,1.21,0.74,cubic,0,3.915,3.915,3.915,90,90,90,0,-2.594,0.608,0,12.005,3.275