Chemical formula,A,B,Valence A,Valence B,Radius A [ang],Radius B [ang],Crystal Type,Crystal Type,a [ang],b [ang],c [ang],alpha [deg],beta [deg],gamma [deg],Band gap [eV],Formation energy [eV/atom],Stability [eV/atom],Magnetic moment [mu_B],Volume per atom [A^3/atom],Vacancy energy [eV/O atom]
HoIrO3,Ho,Ir,2,4,1.12,0.63,cubic,0,3.944,3.944,3.944,90,90,90,0,-1.62,0.796,0.001,12.273,-1.028
HoMnO3,Ho,Mn,3,3,1.12,0.65,orthorhombic,3,5.257,5.71,7.464,90,90,90,0.399,-2.965,0.031,0.8,11.203,3.421
HoMoO3,Ho,Mo,2,4,1.12,0.65,cubic,0,3.949,3.949,3.949,90,90,90,0,-2.251,0.655,0.005,12.312,1.541
HoNbO3,Ho,Nb,2,4,1.12,0.68,cubic,0,4.021,4.021,4.021,90,90,90,0,-2.574,0.65,0,13.003,2.995
HoNiO3,Ho,Ni,3,3,1.12,0.6,orthorhombic,3,5.143,5.517,7.365,90,90,90,0,-2.415,0.019,0.2,10.449,0.995
HoPbO3,Ho,Pb,2,4,1.12,0.78,cubic,0,4.274,4.274,4.274,90,90,90,0,-1.469,1.085,0,15.614,0.529
HoPdO3,Ho,Pd,2,4,1.12,0.62,cubic,0,3.946,3.946,3.946,90,90,90,0,-1.695,0.502,0,12.286,-0.18
HoPrO3,Ho,Pr,2,4,1.12,0.85,cubic,0,4.485,4.485,4.485,90,90,90,0,-2.371,1.354,0,18.049,-2.886
HoReO3,Ho,Re,2,4,1.12,0.63,cubic,0,3.941,3.941,3.941,90,90,90,0,-1.879,0.86,0.163,12.242,0.068
HoRhO3,Ho,Rh,2,4,1.12,0.6,cubic,0,3.908,3.908,3.908,90,90,90,0,-1.831,0.573,0,11.935,-0.263
HoRuO3,Ho,Ru,2,4,1.12,0.62,cubic,0,3.907,3.907,3.907,90,90,90,0,-1.885,0.622,0.13,11.932,0.556
HoSbO3,Ho,Sb,3,3,1.12,0.76,cubic,0,4.201,4.201,4.201,90,90,90,0,-1.706,1.021,0,14.823,0.72
HoScO3,Ho,Sc,3,3,1.12,0.75,cubic,0,3.98,3.98,3.98,90,90,90,2.543,-3.293,0.551,0,12.606,5.011
HoSiO3,Ho,Si,3,3,1.12,0.4,cubic,0,3.672,3.672,3.672,90,90,90,0,-2.626,0.741,0.001,9.905,4.541
HoSnO3,Ho,Sn,2,4,1.12,0.69,cubic,0,4.095,4.095,4.095,90,90,90,0,-1.982,0.875,0,13.735,2.228
HoTaO3,Ho,Ta,2,4,1.12,0.68,cubic,0,4.001,4.001,4.001,90,90,90,0,-2.654,0.684,0.001,12.806,3.002
HoTbO3,Ho,Tb,2,4,1.12,0.76,cubic,0,4.284,4.284,4.284,90,90,90,1.246,-2.688,1.029,0,15.722,0.263
HoTeO3,Ho,Te,2,4,1.12,0.97,cubic,0,4.23,4.23,4.23,90,90,90,0,-1.395,1.171,0.003,15.135,0.712
HoThO3,Ho,Th,2,4,1.12,0.94,cubic,0,4.552,4.552,4.552,90,90,90,0,-2.753,1.091,0.008,18.864,2.036
HoTiO3,Ho,Ti,2,4,1.12,0.61,orthorhombic,3,5.28,5.658,7.611,90,90,90,0,-3.468,0.03,0.2,11.369,4.64
HoUO3,Ho,U,2,4,1.12,0.89,cubic,0,4.383,4.383,4.383,90,90,90,0,-2.55,1.105,0.531,16.841,1.679
HoVO3,Ho,V,2,4,1.12,0.58,orthorhombic,3,5.278,5.64,7.6,90,90,90,1.255,-3.276,-0.023,0.4,11.313,3.926
HoWO3,Ho,W,2,4,1.12,0.66,cubic,0,3.956,3.956,3.956,90,90,90,0,-2.173,0.782,0.001,12.386,1.073
HoZrO3,Ho,Zr,2,4,1.12,0.72,cubic,0,4.12,4.12,4.12,90,90,90,0,-2.936,0.645,0,13.982,4.086
InAlO3,In,Al,3,3,0.92,0.54,orthorhombic,3,5.081,5.259,7.411,90,90,90,2.606,-2.493,0.061,-,9.902,0.82
InAsO3,In,As,3,3,0.92,0.58,cubic,0,3.895,3.895,3.895,90,90,90,0,-1.042,0.603,-,11.82,1.249
InBO3,In,B,3,3,0.92,0.27,cubic,0,3.43,3.43,3.43,90,90,90,0,-1.122,1.178,-,8.071,1.385
InBiO3,In,Bi,1,5,0.92,0.76,cubic,0,4.272,4.272,4.272,90,90,90,0,-0.946,0.713,-,15.596,-1.408
InCoO3,In,Co,3,3,0.92,0.61,cubic,0,3.721,3.721,3.721,90,90,90,0,-0.986,0.563,0.004,10.303,0.504
InCrO3,In,Cr,1,5,0.92,0.49,cubic,0,3.821,3.821,3.821,90,90,90,0,-1.622,0.541,0.543,11.16,0.425
InCuO3,In,Cu,3,3,0.92,0.54,cubic,0,3.732,3.732,3.732,90,90,90,0,-0.724,0.52,-,10.4,-1.222
InGeO3,In,Ge,2,4,0.92,0.53,orthorhombic,3,5.32,5.507,7.963,90,90,90,0,-1.499,0.29,-,11.666,2.283
InIrO3,In,Ir,1,5,0.92,0.57,cubic,0,3.956,3.956,3.956,90,90,90,0,-0.763,0.638,0.055,12.384,1.675
InMnO3,In,Mn,3,3,0.92,0.65,rhombohedral,2,5.391,5.391,5.391,60.1,60.1,60.1,0,-1.799,0.142,0.8,11.094,-0.201
InMoO3,In,Mo,1,5,0.92,0.61,cubic,0,3.995,3.995,3.995,90,90,90,0,-1.703,0.204,0,12.755,4.26
InNbO3,In,Nb,1,5,0.92,0.64,tetragonal,1,4.011,4.011,4.243,90,90,90,0,-2.168,0.133,0,13.652,-
InNiO3,In,Ni,3,3,0.92,0.6,cubic,0,3.695,3.695,3.695,90,90,90,0,-0.854,0.564,0.181,10.086,-1.396
InReO3,In,Re,1,5,0.92,0.58,cubic,0,3.961,3.961,3.961,90,90,90,0,-1.363,0.328,0,12.433,4.128
InRuO3,In,Ru,1,5,0.92,0.57,orthorhombic,3,5.337,5.443,7.699,90,90,90,0,-1.298,0.193,0.2,11.183,1.818
InSbO3,In,Sb,1,5,0.92,0.6,tetragonal,1,4.071,4.071,4.1,90,90,90,0,-1.262,0.45,-,13.586,2.2
InSiO3,In,Si,2,4,0.92,0.4,cubic,0,3.635,3.635,3.635,90,90,90,0,-1.906,0.553,-,9.607,3.913
InTaO3,In,Ta,1,5,0.92,0.64,tetragonal,1,4.023,4.023,4.057,90,90,90,0,-2.355,0.16,0,13.135,-
InTeO3,In,Te,2,4,0.92,0.97,cubic,0,4.16,4.16,4.16,90,90,90,0,-0.981,0.554,-,14.403,1.509
InTiO3,In,Ti,2,4,0.92,0.61,orthorhombic,3,5.347,5.565,7.859,90,90,90,0,-2.373,0.187,0.155,11.691,2.919
InUO3,In,U,1,5,0.92,0.76,cubic,0,4.371,4.371,4.371,90,90,90,1.969,-2.665,0.241,0.2,16.707,-
InVO3,In,V,2,4,0.92,0.58,rhombohedral,2,5.418,5.418,5.418,59.9,59.9,59.9,0.327,-2.129,0.109,0.4,11.215,1.484
InWO3,In,W,1,5,0.92,0.62,cubic,0,3.998,3.998,3.998,90,90,90,0,-1.795,0.162,0,12.785,4.921
IrAgO3,Ir,Ag,3,3,0.68,0.75,cubic,0,3.99,3.99,3.99,90,90,90,0,0.947,1.691,0.749,12.707,-9.786
IrAlO3,Ir,Al,3,3,0.68,0.54,cubic,0,3.635,3.635,3.635,90,90,90,0,-1.035,1.076,0.011,9.602,-1.626
IrAsO3,Ir,As,3,3,0.68,0.58,cubic,0,3.825,3.825,3.825,90,90,90,0,0.107,1.309,0.561,11.189,-0.51
IrBO3,Ir,B,3,3,0.68,0.27,cubic,0,3.392,3.392,3.392,90,90,90,0,-0.128,1.663,-0.002,7.806,-0.705
IrBeO3,Ir,Be,4,2,0.63,0.45,cubic,0,3.431,3.431,3.431,90,90,90,0,-0.574,1.251,0.004,8.079,-3.711
IrCeO3,Ir,Ce,3,3,0.68,1.01,cubic,0,4.511,4.511,4.511,90,90,90,0,-0.255,1.984,0.819,18.353,-9.956
IrCoO3,Ir,Co,3,3,0.68,0.61,cubic,0,3.658,3.658,3.658,90,90,90,0,0.152,1.31,0.228,9.79,-5.721
IrCrO3,Ir,Cr,3,3,0.68,0.62,cubic,0,3.79,3.79,3.79,90,90,90,0,-0.477,1.243,0.527,10.89,-2.471
IrCuO3,Ir,Cu,3,3,0.68,0.54,cubic,0,3.686,3.686,3.686,90,90,90,0,0.431,1.392,0.111,10.019,-6.058
IrDyO3,Ir,Dy,3,3,0.68,0.91,cubic,0,4.28,4.28,4.28,90,90,90,0,-0.644,1.76,0.805,15.678,-8.381
IrErO3,Ir,Er,3,3,0.68,0.89,cubic,0,4.239,4.239,4.239,90,90,90,0,-0.717,1.711,0.806,15.236,-7.964
IrEuO3,Ir,Eu,3,3,0.68,0.95,rhombohedral,2,6.062,6.062,6.062,58.3,58.3,58.3,0,-1.774,0.323,0.2,15.125,-13.252
IrFeO3,Ir,Fe,3,3,0.68,0.65,cubic,0,3.795,3.795,3.795,90,90,90,0,-0.072,1.231,1.576,10.929,-4.804
IrGaO3,Ir,Ga,3,3,0.68,0.62,cubic,0,3.763,3.763,3.763,90,90,90,0,-0.219,1.31,0.415,10.655,-4.314
IrGdO3,Ir,Gd,3,3,0.68,0.94,cubic,0,4.324,4.324,4.324,90,90,90,0,-0.563,1.812,0.819,16.172,-8.807
IrHfO3,Ir,Hf,3,3,0.68,0.71,cubic,0,4.055,4.055,4.055,90,90,90,0,-1.384,1.238,0.607,13.331,-1.374
IrHoO3,Ir,Ho,3,3,0.68,0.9,cubic,0,4.259,4.259,4.259,90,90,90,0,-0.682,1.735,0.804,15.449,-8.17
IrInO3,Ir,In,3,3,0.68,0.8,cubic,0,4.1,4.1,4.1,90,90,90,0,0.209,1.61,0.802,13.785,-7.545
Ir2O3,Ir,Ir,3,3,0.68,0.68,cubic,0,3.898,3.898,3.898,90,90,90,0,0.431,1.389,0.565,11.848,-2.173
IrLaO3,Ir,La,3,3,0.68,1.03,cubic,0,4.464,4.464,4.464,90,90,90,0,-0.39,1.95,0.811,17.797,-9.607
IrLuO3,Ir,Lu,3,3,0.68,0.86,cubic,0,4.177,4.177,4.177,90,90,90,0,-0.826,1.634,0.802,14.576,-7.297
IrMgO3,Ir,Mg,4,2,0.63,0.72,cubic,0,3.724,3.724,3.724,90,90,90,0,-0.299,1.518,0.005,10.333,-7.24
IrMnO3,Ir,Mn,3,3,0.68,0.65,cubic,0,3.784,3.784,3.784,90,90,90,0,-0.268,1.231,1.378,10.835,-4.604
IrMoO3,Ir,Mo,3,3,0.68,0.69,cubic,0,3.909,3.909,3.909,90,90,90,0,-0.548,1.182,0.431,11.944,1.436
IrNbO3,Ir,Nb,3,3,0.68,0.72,cubic,0,3.989,3.989,3.989,90,90,90,0,-0.984,1.158,0.428,12.698,3.086
IrNdO3,Ir,Nd,3,3,0.68,0.98,cubic,0,4.435,4.435,4.435,90,90,90,0,-0.365,1.924,0.815,17.452,-9.617
IrNiO3,Ir,Ni,3,3,0.68,0.6,cubic,0,3.674,3.674,3.674,90,90,90,0,0.259,1.394,0.261,9.919,-3.797
IrPdO3,Ir,Pd,3,3,0.68,0.76,cubic,0,3.926,3.926,3.926,90,90,90,0,0.627,1.525,0.768,12.101,-6.252
IrPrO3,Ir,Pr,3,3,0.68,0.99,cubic,0,4.469,4.469,4.469,90,90,90,0,-0.314,1.97,0.815,17.851,-9.787
IrReO3,Ir,Re,3,3,0.68,0.63,cubic,0,3.885,3.885,3.885,90,90,90,0,-0.213,1.308,0.398,11.731,0.247
IrRhO3,Ir,Rh,3,3,0.68,0.67,cubic,0,3.884,3.884,3.884,90,90,90,0,0.397,1.347,0.743,11.722,-1.62
IrRuO3,Ir,Ru,3,3,0.68,0.68,cubic,0,3.865,3.865,3.865,90,90,90,0,0.168,1.247,0.32,11.548,-0.77
IrScO3,Ir,Sc,3,3,0.68,0.75,cubic,0,4.006,4.006,4.006,90,90,90,0,-0.919,1.464,0.8,12.862,-5.969
IrSmO3,Ir,Sm,3,3,0.68,0.96,cubic,0,4.38,4.38,4.38,90,90,90,0,-0.457,1.873,0.809,16.809,-9.274
IrTaO3,Ir,Ta,3,3,0.68,0.72,cubic,0,3.966,3.966,3.966,90,90,90,0,-1.213,1.138,0.424,12.476,3.661
IrTbO3,Ir,Tb,3,3,0.68,0.92,cubic,0,4.301,4.301,4.301,90,90,90,0,-0.473,1.786,0.807,15.915,-8.596
IrTiO3,Ir,Ti,3,3,0.68,0.67,cubic,0,3.85,3.85,3.85,90,90,90,0,-1.152,1.113,0.603,11.409,-1.56
IrTlO3,Ir,Tl,3,3,0.68,0.89,rhombohedral,2,5.943,5.943,5.943,70.1,70.1,70.1,0.544,-0.731,0.253,0.4,17.947,-10.072
IrTmO3,Ir,Tm,3,3,0.68,0.88,cubic,0,4.215,4.215,4.215,90,90,90,0,-0.764,1.681,0.802,14.978,-7.71
IrUO3,Ir,U,3,3,0.68,1.03,cubic,0,4.298,4.298,4.298,90,90,90,0,-1.349,1.262,0.701,15.876,3.247
IrVO3,Ir,V,3,3,0.68,0.64,cubic,0,3.782,3.782,3.782,90,90,90,0,-0.69,1.131,0.643,10.822,-2.37
IrWO3,Ir,W,3,3,0.68,0.66,cubic,0,3.909,3.909,3.909,90,90,90,0,-0.656,1.3,0.391,11.95,1.469
IrYO3,Ir,Y,3,3,0.68,0.9,cubic,0,4.292,4.292,4.292,90,90,90,0,-0.617,1.766,0.804,15.817,-8.38
IrYbO3,Ir,Yb,3,3,0.68,0.87,rhombohedral,2,5.616,5.616,5.616,62.7,62.7,62.7,0,-1.731,0.375,0.068,13.293,-12.016
IrZrO3,Ir,Zr,3,3,0.68,0.72,cubic,0,4.111,4.111,4.111,90,90,90,0,-1.191,1.308,0.608,13.892,-2.392
KBiO3,K,Bi,1,5,1.64,0.76,orthorhombic,3,5.912,5.97,8.412,90,90,90,0.273,-1.352,0.098,-,14.845,0.393
KCrO3,K,Cr,1,5,1.64,0.49,tetragonal,1,3.614,3.614,5.013,90,90,90,0,-1.76,0.289,0.237,13.099,-0.011
KIrO3,K,Ir,1,5,1.64,0.57,orthorhombic,3,5.521,5.575,7.842,90,90,90,0,-1.133,0.192,0.155,12.069,1.458
KMoO3,K,Mo,1,5,1.64,0.61,rhombohedral,2,5.572,5.572,5.572,60,60,60,0,-2.247,0.032,0,12.235,5.02
KNbO3,K,Nb,1,5,1.64,0.64,tetragonal,1,4.003,4.003,4.161,90,90,90,1.714,-2.697,-0.221,0,13.332,5.482
KReO3,K,Re,1,5,1.64,0.58,cubic,0,3.914,3.914,3.914,90,90,90,0,-1.92,0.008,0,11.989,5.027
KRuO3,K,Ru,1,5,1.64,0.57,orthorhombic,3,5.516,5.517,7.803,90,90,90,0,-1.363,0.089,0,11.871,2.026
KSbO3,K,Sb,1,5,1.64,0.6,orthorhombic,3,5.641,5.649,7.992,90,90,90,0.275,-1.742,0.151,-,12.735,2.508
KTaO3,K,Ta,1,5,1.64,0.64,rhombohedral,2,5.663,5.663,5.663,60,60,60,2.324,-2.92,-0.38,0,12.838,6.626
KVO3,K,V,1,5,1.64,0.54,tetragonal,1,3.685,3.685,4.618,90,90,90,0.284,-2.271,0.099,0,12.542,2.017
KWO3,K,W,1,5,1.64,0.62,orthorhombic,3,5.572,5.577,7.887,90,90,90,0,-2.372,-0.004,-0.001,12.255,6.026
LaAgO3,La,Ag,3,3,1.36,0.75,orthorhombic,3,5.635,5.994,8.08,90,90,90,0,-1.962,0.007,0,13.645,0.272
LaAlO3,La,Al,3,3,1.36,0.54,rhombohedral,2,5.359,5.359,5.359,60.1,60.1,60.1,4.122,-3.561,-0.072,0,10.913,-
LaAsO3,La,As,3,3,1.36,0.58,orthorhombic,3,5.658,5.954,8.122,90,90,90,0,-2.415,0.236,0,13.681,3.038
LaBiO3,La,Bi,3,3,1.36,1.03,cubic,0,4.413,4.413,4.413,90,90,90,0,-1.9,0.693,0,17.183,1.98
LaCeO3,La,Ce,3,3,1.36,1.01,cubic,0,4.558,4.558,4.558,90,90,90,0.687,-2.7,0.916,0,18.942,3.087
LaCoO3,La,Co,3,3,1.36,0.61,orthorhombic,3,5.44,5.454,7.716,90,90,90,0,-2.505,-0.022,0.403,11.446,2.964
LaCrO3,La,Cr,3,3,1.36,0.62,orthorhombic,3,5.506,5.586,7.819,90,90,90,2.07,-3.168,-0.071,0.6,12.024,4.845
LaCuO3,La,Cu,3,3,1.36,0.54,orthorhombic,3,5.414,5.47,7.686,90,90,90,0,-2.237,0.027,0,11.38,1.357
LaDyO3,La,Dy,3,3,1.36,0.91,cubic,0,4.301,4.301,4.301,90,90,90,1.85,-3.253,0.529,0,15.915,4.719
LaErO3,La,Er,3,3,1.36,0.89,orthorhombic,3,5.832,6.04,8.409,90,90,90,4.586,-3.776,0.028,0,14.809,4.912
LaEuO3,La,Eu,3,3,1.36,0.95,cubic,0,4.294,4.294,4.294,90,90,90,0,-2.492,0.723,0.137,15.833,-1.022
LaFeO3,La,Fe,3,3,1.36,0.65,orthorhombic,3,5.52,5.621,7.855,90,90,90,1.092,-2.755,-0.035,1,12.186,4.037
LaGaO3,La,Ga,3,3,1.36,0.62,orthorhombic,3,5.512,5.536,7.815,90,90,90,3.829,-2.935,-0.028,0,11.923,4.934
LaGdO3,La,Gd,3,3,1.36,0.94,cubic,0,4.351,4.351,4.351,90,90,90,1.561,-3.149,0.604,0,16.472,3.005
LaGeO3,La,Ge,3,3,1.36,0.63,rhombohedral,2,5.623,5.623,5.623,61.1,61.1,61.1,0,-2.537,0.295,0,12.882,3.222
LaHfO3,La,Hf,2,4,1.36,0.71,orthorhombic,3,5.709,5.898,8.123,90,90,90,0,-3.481,0.175,0,13.675,5.446
LaHoO3,La,Ho,3,3,1.36,0.9,orthorhombic,3,5.849,6.063,8.445,90,90,90,4.546,-3.759,0.034,0,14.973,4.805
LaInO3,La,In,3,3,1.36,0.8,orthorhombic,3,5.721,5.972,8.251,90,90,90,3.131,-2.773,0.006,0,14.094,3.397
LaIrO3,La,Ir,3,3,1.36,0.68,orthorhombic,3,5.466,5.894,7.908,90,90,90,0.809,-2.255,0.085,0,12.737,0.504
La2O3,La,La,3,3,1.36,1.03,cubic,0,4.592,4.592,4.592,90,90,90,0.595,-2.825,0.888,0,19.361,3.112
LaLuO3,La,Lu,3,3,1.36,0.86,rhombohedral,2,5.841,5.841,5.841,60.8,60.8,60.8,4.557,-3.782,0.055,0,14.353,5.238
LaMnO3,La,Mn,3,3,1.36,0.65,orthorhombic,3,5.509,5.663,7.814,90,90,90,0,-2.932,0,0.8,12.188,3.921
LaMoO3,La,Mo,3,3,1.36,0.69,orthorhombic,3,5.543,5.903,7.987,90,90,90,0,-2.681,0.21,0.388,13.065,3.435
LaNbO3,La,Nb,1,5,1.36,0.64,orthorhombic,3,5.61,5.963,8.018,90,90,90,0,-3.006,0.176,0.039,13.412,4.563
LaNdO3,La,Nd,3,3,1.36,0.98,cubic,0,4.479,4.479,4.479,90,90,90,1.024,-2.871,0.796,0,17.976,3.701
LaNiO3,La,Ni,3,3,1.36,0.6,orthorhombic,3,5.402,5.466,7.674,90,90,90,0,-2.376,-0.019,0.215,11.329,1.465
LaPbO3,La,Pb,2,4,1.36,0.78,cubic,0,4.337,4.337,4.337,90,90,90,0,-1.856,0.617,0,16.312,1.344
LaPdO3,La,Pd,2,4,1.36,0.62,orthorhombic,3,5.592,5.914,7.879,90,90,90,0,-2.195,0.008,-0.001,13.027,0.907
LaPrO3,La,Pr,3,3,1.36,0.99,cubic,0,4.517,4.517,4.517,90,90,90,0.859,-2.792,0.852,0,18.427,3.411
LaReO3,La,Re,3,3,1.36,0.63,cubic,0,3.992,3.992,3.992,90,90,90,0,-2.206,0.526,0.137,12.721,-
LaRhO3,La,Rh,3,3,1.36,0.67,orthorhombic,3,5.503,5.806,7.89,90,90,90,0.674,-2.386,-0.062,0,12.605,1.14
LaRuO3,La,Ru,3,3,1.36,0.68,orthorhombic,3,5.453,5.85,7.876,90,90,90,0,-2.396,0.04,0.196,12.563,2.045
LaSbO3,La,Sb,3,3,1.36,0.76,cubic,0,4.261,4.261,4.261,90,90,90,0,-2.075,0.622,-0.001,15.471,2.31
LaScO3,La,Sc,3,3,1.36,0.75,orthorhombic,3,5.653,5.799,8.078,90,90,90,4.099,-3.789,-0.029,0,13.241,5.579
LaSiO3,La,Si,3,3,1.36,0.4,cubic,0,3.817,3.817,3.817,90,90,90,0,-2.751,0.596,0,11.122,4.551
LaSmO3,La,Sm,3,3,1.36,0.96,cubic,0,4.415,4.415,4.415,90,90,90,1.406,-3.007,0.7,0,17.209,-
LaSnO3,La,Sn,2,4,1.36,0.69,cubic,0,4.169,4.169,4.169,90,90,90,0,-2.298,0.525,0.003,14.488,2.916
LaTaO3,La,Ta,1,5,1.36,0.64,orthorhombic,3,5.583,5.938,7.99,90,90,90,0,-3.01,0.293,0.011,13.244,4.629
LaTbO3,La,Tb,3,3,1.36,0.92,cubic,0,4.325,4.325,4.325,90,90,90,1.71,-3.071,0.565,0,16.182,4.6
LaTeO3,La,Te,2,4,1.36,0.97,cubic,0,4.283,4.283,4.283,90,90,90,0,-1.762,0.776,0.001,15.711,1.895
LaThO3,La,Th,2,4,1.36,0.94,cubic,0,4.566,4.566,4.566,90,90,90,0,-3.077,0.703,0.124,19.038,3.971
LaTiO3,La,Ti,3,3,1.36,0.67,orthorhombic,3,5.524,5.645,7.879,90,90,90,0,-3.465,0.01,0.039,12.286,-
LaTlO3,La,Tl,3,3,1.36,0.89,orthorhombic,3,5.817,6.164,8.46,90,90,90,1.302,-2.287,0.038,0,15.167,1.289
LaTmO3,La,Tm,3,3,1.36,0.88,orthorhombic,3,5.814,6.017,8.367,90,90,90,4.59,-3.8,0.022,0,14.634,5.056
LaUO3,La,U,1,5,1.36,0.76,cubic,0,4.415,4.415,4.415,90,90,90,0,-2.868,0.706,0.565,17.215,3.368
LaVO3,La,V,3,3,1.36,0.64,orthorhombic,3,5.537,5.689,7.859,90,90,90,1.248,-3.248,-0.077,0.4,12.379,4.609
LaWO3,La,W,3,3,1.36,0.66,orthorhombic,3,5.478,5.95,7.902,90,90,90,0,-2.569,0.355,0,12.879,3.061
LaYO3,La,Y,3,3,1.36,0.9,cubic,0,4.3,4.3,4.3,90,90,90,1.912,-3.229,0.531,0,15.904,4.641
LaYbO3,La,Yb,3,3,1.36,0.87,cubic,0,4.155,4.155,4.155,90,90,90,0,-2.702,0.558,0,14.344,-0.903
LaZrO3,La,Zr,3,3,1.36,0.72,orthorhombic,3,5.766,5.989,8.19,90,90,90,0,-3.42,0.133,0.003,14.142,5.094
LiAsO3,Li,As,1,5,0.92,0.46,orthorhombic,3,4.891,5.003,7.058,90,90,90,1.977,-1.66,0.164,-,8.634,1.238
LiBiO3,Li,Bi,1,5,0.92,0.76,orthorhombic,3,5.414,5.501,7.849,90,90,90,0.781,-1.445,0.037,-,11.688,0.067
LiCrO3,Li,Cr,1,5,0.92,0.49,orthorhombic,3,4.857,5.074,7.049,90,90,90,0,-1.83,0.232,0.2,8.687,-0.06
LiFeO3,Li,Fe,1,5,0.92,0.59,orthorhombic,3,4.869,5.052,6.979,90,90,90,0,-1.354,0.196,0.6,8.583,-0.831
LiIrO3,Li,Ir,1,5,0.92,0.57,rhombohedral,2,5.198,5.198,5.198,59.2,59.2,59.2,0,-1.378,-0.058,0,9.756,0.843
LiMnO3,Li,Mn,1,5,0.92,0.33,orthorhombic,3,4.901,5.115,6.874,90,90,90,0,-1.604,0.22,0.4,8.616,-1.049
LiMoO3,Li,Mo,1,5,0.92,0.61,rhombohedral,2,5.369,5.369,5.369,57.3,57.3,57.3,0,-2.232,0.09,-0.001,10.278,4.169
LiNbO3,Li,Nb,1,5,0.92,0.64,rhombohedral,2,5.467,5.467,5.467,56.9,56.9,56.9,2.613,-2.704,0.033,0,10.725,4.763
LiReO3,Li,Re,1,5,0.92,0.58,rhombohedral,2,5.309,5.309,5.309,57.9,57.9,57.9,0,-1.921,0.067,0.003,10.067,3.622
LiRuO3,Li,Ru,1,5,0.92,0.57,rhombohedral,2,5.197,5.197,5.197,58.8,58.8,58.8,0,-1.495,-0.029,0,9.662,1.489
LiSbO3,Li,Sb,1,5,0.92,0.6,rhombohedral,2,5.371,5.371,5.371,58.1,58.1,58.1,2.403,-1.906,0.049,-,10.472,2.451
LiTaO3,Li,Ta,1,5,0.92,0.64,rhombohedral,2,5.444,5.444,5.444,56.9,56.9,56.9,3.544,-2.95,0.016,0,10.582,5.721
LiUO3,Li,U,1,5,0.92,0.76,rhombohedral,2,5.888,5.888,5.888,55.4,55.4,55.4,3.281,-3.146,0,0.2,12.908,4.056
LiVO3,Li,V,1,5,0.92,0.54,tetragonal,1,3.608,3.608,4.312,90,90,90,0.815,-2.299,0.074,0,11.23,2.005
LiWO3,Li,W,1,5,0.92,0.62,rhombohedral,2,5.394,5.394,5.394,57.3,57.3,57.3,0,-2.351,0.056,0,10.409,4.814
LuAgO3,Lu,Ag,3,3,1.03,0.75,cubic,0,3.998,3.998,3.998,90,90,90,0,-1.295,0.798,0,12.777,-0.965
LuAlO3,Lu,Al,3,3,1.03,0.54,orthorhombic,3,5.078,5.326,7.283,90,90,90,6.174,-3.622,-0.008,0,9.848,6.179
LuAsO3,Lu,As,3,3,1.03,0.58,cubic,0,3.972,3.972,3.972,90,90,90,0,-1.773,0.945,0,12.537,1.859
LuBO3,Lu,B,3,3,1.03,0.27,cubic,0,3.406,3.406,3.406,90,90,90,3.125,-2.525,0.88,0,7.901,5.405
LuBiO3,Lu,Bi,3,3,1.03,1.03,cubic,0,4.357,4.357,4.357,90,90,90,0,-1.379,1.339,0,16.542,0.107
LuCeO3,Lu,Ce,3,3,1.03,1.01,cubic,0,4.526,4.526,4.526,90,90,90,0,-2.148,1.593,0.003,18.538,1.61
LuCoO3,Lu,Co,3,3,1.03,0.61,orthorhombic,3,5.114,5.546,7.283,90,90,90,1.41,-2.573,0.035,0,10.328,1.89
LuCrO3,Lu,Cr,3,3,1.03,0.62,orthorhombic,3,5.175,5.519,7.493,90,90,90,2.393,-3.233,-0.011,0.6,10.7,3.926
LuCuO3,Lu,Cu,3,3,1.03,0.54,orthorhombic,3,5.121,5.809,7.059,90,90,90,0.273,-2.309,0.018,0,10.498,0.256
LuDyO3,Lu,Dy,3,3,1.03,0.91,cubic,0,4.248,4.248,4.248,90,90,90,0.591,-2.753,1.153,0,15.334,-0.415
LuErO3,Lu,Er,3,3,1.03,0.89,cubic,0,4.202,4.202,4.202,90,90,90,0.878,-2.856,1.073,0,14.843,0.359
LuEuO3,Lu,Eu,3,3,1.03,0.95,orthorhombic,3,5.582,5.682,9.331,90,90,90,0,-3.128,0.227,0.2,14.799,-3.424
LuFeO3,Lu,Fe,3,3,1.03,0.65,orthorhombic,3,5.197,5.533,7.534,90,90,90,1.263,-2.808,0.001,1,10.832,2.726
LuGaO3,Lu,Ga,3,3,1.03,0.62,orthorhombic,3,5.172,5.507,7.477,90,90,90,4.106,-3.002,0.03,0,10.647,4.166
LuGdO3,Lu,Gd,3,3,1.03,0.94,cubic,0,4.305,4.305,4.305,90,90,90,0.417,-2.635,1.242,0,15.96,-1.222
LuGeO3,Lu,Ge,3,3,1.03,0.63,cubic,0,3.84,3.84,3.84,90,90,90,0,-2.095,0.736,0,11.32,2.514
LuHfO3,Lu,Hf,3,3,1.03,0.71,cubic,0,4.066,4.066,4.066,90,90,90,0,-3.008,0.701,0,13.441,4.267
LuHoO3,Lu,Ho,3,3,1.03,0.9,cubic,0,4.231,4.231,4.231,90,90,90,0.884,-2.808,1.11,0,15.148,-0.008
LuInO3,Lu,In,3,3,1.03,0.8,cubic,0,4.076,4.076,4.076,90,90,90,0.993,-2.01,0.893,0,13.548,2.407
LuIrO3,Lu,Ir,3,3,1.03,0.68,cubic,0,3.934,3.934,3.934,90,90,90,0,-1.513,0.947,0,12.178,-1.445
LuLaO3,Lu,La,3,3,1.03,1.03,cubic,0,4.498,4.498,4.498,90,90,90,0,-2.27,1.567,0,18.197,1.309
Lu2O3,Lu,Lu,3,3,1.03,0.86,cubic,0,4.134,4.134,4.134,90,90,90,0.853,-3.004,0.957,0,14.132,1.406
LuMnO3,Lu,Mn,3,3,1.03,0.65,orthorhombic,3,5.189,5.658,7.406,90,90,90,0.422,-2.982,0.052,0.8,10.871,3.157
LuMoO3,Lu,Mo,3,3,1.03,0.69,cubic,0,3.943,3.943,3.943,90,90,90,0,-2.143,0.808,0.002,12.264,1.071
LuNbO3,Lu,Nb,3,3,1.03,0.72,cubic,0,4.018,4.018,4.018,90,90,90,0,-2.467,0.789,0,12.973,2.619
LuNdO3,Lu,Nd,3,3,1.03,0.98,cubic,0,4.44,4.44,4.44,90,90,90,0,-2.329,1.462,0,17.501,2.364
LuNiO3,Lu,Ni,3,3,1.03,0.6,orthorhombic,3,5.054,5.53,7.241,90,90,90,0,-2.44,0.037,0.2,10.119,0.736
LuPrO3,Lu,Pr,3,3,1.03,0.99,cubic,0,4.479,4.479,4.479,90,90,90,0,-2.244,1.525,0,17.971,2.007
LuReO3,Lu,Re,3,3,1.03,0.63,cubic,0,3.929,3.929,3.929,90,90,90,0,-1.769,0.981,0.138,12.132,-0.465
LuRhO3,Lu,Rh,3,3,1.03,0.67,cubic,0,3.894,3.894,3.894,90,90,90,0,-1.728,0.72,0.001,11.811,-0.647
LuRuO3,Lu,Ru,3,3,1.03,0.68,cubic,0,3.895,3.895,3.895,90,90,90,0,-1.779,0.772,0.14,11.816,0.094
LuSbO3,Lu,Sb,3,3,1.03,0.76,cubic,0,4.191,4.191,4.191,90,90,90,0,-1.597,1.174,0,14.726,0.01
LuScO3,Lu,Sc,3,3,1.03,0.75,cubic,0,3.963,3.963,3.963,90,90,90,2.638,-3.189,0.696,0,12.449,4.801
LuSiO3,Lu,Si,3,3,1.03,0.4,cubic,0,3.642,3.642,3.642,90,90,90,0,-2.554,0.876,0.001,9.658,4.364
LuSmO3,Lu,Sm,3,3,1.03,0.96,cubic,0,4.372,4.372,4.372,90,90,90,0,-2.478,1.354,0,16.714,-1.156