Chemical formula,A,B,Valence A,Valence B,Radius A [ang],Radius B [ang],Crystal Type,Crystal Type,a [ang],b [ang],c [ang],alpha [deg],beta [deg],gamma [deg],Band gap [eV],Formation energy [eV/atom],Stability [eV/atom],Magnetic moment [mu_B],Volume per atom [A^3/atom],Vacancy energy [eV/O atom]
TiAlO3,Ti,Al,3,3,0.67,0.54,cubic,0,3.589,3.589,3.589,90,90,90,0,-2.499,0.694,0.2,9.244,2.463
TiAsO3,Ti,As,3,3,0.67,0.58,cubic,0,3.847,3.847,3.847,90,90,90,0,-1.12,1.308,0.385,11.39,0.483
TiBO3,Ti,B,3,3,0.67,0.27,cubic,0,3.308,3.308,3.308,90,90,90,0,-1.779,1.094,0.189,7.239,3.148
TiBeO3,Ti,Be,4,2,0.74,0.45,cubic,0,3.351,3.351,3.351,90,90,90,0,-2.121,1.011,0,7.526,-0.819
TiCeO3,Ti,Ce,2,4,0.86,0.87,rhombohedral,2,6.121,6.121,6.121,58.6,58.6,58.6,0.625,-3.075,0.288,0.2,15.697,-7.58
TiCoO3,Ti,Co,2,4,0.86,0.53,cubic,0,3.597,3.597,3.597,90,90,90,0,-1.343,1.145,-0.141,9.305,0.232
TiCrO3,Ti,Cr,2,4,0.86,0.55,orthorhombic,3,4.894,5.313,7.392,90,90,90,0,-2.647,0.158,0.8,9.609,0.834
TiCuO3,Ti,Cu,3,3,0.67,0.54,cubic,0,3.636,3.636,3.636,90,90,90,0,-1.045,1.223,-0.149,9.617,-1.227
TiFeO3,Ti,Fe,2,4,0.86,0.59,cubic,0,3.739,3.739,3.739,90,90,90,0,-1.429,1.171,1.199,10.453,-0.463
TiGaO3,Ti,Ga,3,3,0.67,0.62,cubic,0,3.735,3.735,3.735,90,90,90,0,-1.653,0.993,0.2,10.422,0.279
TiGeO3,Ti,Ge,2,4,0.86,0.53,cubic,0,3.72,3.72,3.72,90,90,90,0,-1.551,0.961,0.382,10.293,2.162
TiHfO3,Ti,Hf,2,4,0.86,0.71,cubic,0,4.041,4.041,4.041,90,90,90,0,-2.561,0.839,0.4,13.202,1.519
TiIrO3,Ti,Ir,2,4,0.86,0.63,cubic,0,4.504,4.504,4.504,90,90,90,0,0.075,2.34,0.029,18.273,-9.867
TiMnO3,Ti,Mn,2,4,0.86,0.53,cubic,0,3.733,3.733,3.733,90,90,90,0,-1.615,1.222,0.725,10.401,-0.705
TiMoO3,Ti,Mo,2,4,0.86,0.65,cubic,0,3.902,3.902,3.902,90,90,90,0,-1.638,0.954,0.433,11.878,-
TiNbO3,Ti,Nb,2,4,0.86,0.68,cubic,0,3.985,3.985,3.985,90,90,90,0,-2.023,0.833,0.447,12.656,3.134
TiNiO3,Ti,Ni,2,4,0.86,0.48,cubic,0,3.608,3.608,3.608,90,90,90,0,-1.212,1.256,0.4,9.392,-1.581
TiPbO3,Ti,Pb,2,4,0.86,0.78,orthorhombic,3,5.589,5.774,9.576,90,90,90,1.808,-2.367,0.15,0,15.451,0.001
TiPdO3,Ti,Pd,2,4,0.86,0.62,cubic,0,3.897,3.897,3.897,90,90,90,0,-0.68,1.526,0.223,11.839,-1.399
TiPrO3,Ti,Pr,2,4,0.86,0.85,orthorhombic,3,5.738,5.841,8.326,90,90,90,0,-3.098,0.284,0.2,13.954,-7.286
TiReO3,Ti,Re,2,4,0.86,0.63,cubic,0,3.885,3.885,3.885,90,90,90,0,-1.272,1.186,0.429,11.73,0.567
TiRhO3,Ti,Rh,2,4,0.86,0.6,cubic,0,3.851,3.851,3.851,90,90,90,0,-0.857,1.4,0.005,11.42,-1.546
TiRuO3,Ti,Ru,2,4,0.86,0.62,cubic,0,3.839,3.839,3.839,90,90,90,0,-0.998,1.327,-0.007,11.315,-0.586
TiSbO3,Ti,Sb,2,4,0.86,0.68,cubic,0,4.069,4.069,4.069,90,90,90,0,-1.128,1.344,0.457,13.476,1.031
TiSiO3,Ti,Si,2,4,0.86,0.4,cubic,0,3.523,3.523,3.523,90,90,90,0,-2.231,0.733,0.399,8.748,4.402
TiSnO3,Ti,Sn,2,4,0.86,0.69,orthorhombic,3,5.463,5.791,9.182,90,90,90,1.051,-2.316,0.25,0,14.526,1.902
TiTaO3,Ti,Ta,2,4,0.86,0.68,cubic,0,3.962,3.962,3.962,90,90,90,0,-2.185,0.69,0.472,12.44,3.64
TiTbO3,Ti,Tb,2,4,0.86,0.76,orthorhombic,3,5.624,5.633,8.04,90,90,90,0,-3.087,0.255,0.2,12.735,-5.488
TiTeO3,Ti,Te,2,4,0.86,0.97,cubic,0,4.159,4.159,4.159,90,90,90,0,-0.837,1.498,0.434,14.383,0.842
TiThO3,Ti,Th,2,4,0.86,0.94,cubic,0,4.532,4.532,4.532,90,90,90,0,-2.171,1.469,0.4,18.617,2.591
TiUO3,Ti,U,2,4,0.86,0.89,orthorhombic,3,5.691,5.953,8.016,90,90,90,0,-3.001,0.388,0.8,13.578,3.769
TiVO3,Ti,V,2,4,0.86,0.58,cubic,0,3.757,3.757,3.757,90,90,90,0,-2.002,0.911,0.604,10.609,2.541
TiWO3,Ti,W,2,4,0.86,0.66,cubic,0,3.91,3.91,3.91,90,90,90,0,-1.66,0.939,0.465,11.953,2.079
TiZrO3,Ti,Zr,2,4,0.86,0.72,cubic,0,4.101,4.101,4.101,90,90,90,0,-2.362,0.915,0.4,13.792,0.297
TlAlO3,Tl,Al,3,3,0.98,0.54,orthorhombic,3,5.208,5.326,7.533,90,90,90,1.01,-2.028,0.073,-,10.447,-0.122
TlAsO3,Tl,As,3,3,0.98,0.58,tetragonal,1,3.706,3.706,4.784,90,90,90,0,-1.073,0.24,-,13.142,1.078
TlBiO3,Tl,Bi,1,5,1.7,0.76,orthorhombic,3,5.963,6.036,8.663,90,90,90,0,-1.098,0.108,-,15.591,0.492
TlCoO3,Tl,Co,3,3,0.98,0.61,orthorhombic,3,5.294,5.455,7.585,90,90,90,0,-0.991,0.105,0.4,10.952,-0.542
TlCrO3,Tl,Cr,3,3,0.98,0.62,orthorhombic,3,5.342,5.501,7.693,90,90,90,0.543,-1.672,0.038,0.6,11.302,0.334
TlCuO3,Tl,Cu,3,3,0.98,0.54,orthorhombic,3,5.287,5.471,7.571,90,90,90,0,-0.711,0.08,-,10.95,-1.479
TlFeO3,Tl,Fe,3,3,0.98,0.65,orthorhombic,3,5.347,5.515,7.76,90,90,90,0,-1.249,0.045,0.999,11.441,-0.727
TlGaO3,Tl,Ga,3,3,0.98,0.62,orthorhombic,3,5.316,5.457,7.772,90,90,90,0.558,-1.454,0.065,-,11.272,-1.757
TlGeO3,Tl,Ge,3,3,0.98,0.63,tetragonal,1,3.584,3.584,4.937,90,90,90,0,-1.304,0.175,-,12.684,1.418
TlIrO3,Tl,Ir,1,5,1.7,0.57,orthorhombic,3,5.515,5.581,7.863,90,90,90,0,-0.822,0.161,0,12.101,1.362
TlMnO3,Tl,Mn,3,3,0.98,0.65,orthorhombic,3,5.341,5.538,7.725,90,90,90,0,-1.426,0.051,0.797,11.424,-0.182
TlMoO3,Tl,Mo,1,5,1.7,0.61,cubic,0,3.999,3.999,3.999,90,90,90,0,-1.74,0.145,0,12.788,4.161
TlNbO3,Tl,Nb,1,5,1.7,0.64,tetragonal,1,4.032,4.032,4.218,90,90,90,0.448,-2.223,0.065,0,13.712,4.564
TlNiO3,Tl,Ni,3,3,0.98,0.6,orthorhombic,3,5.273,5.437,7.573,90,90,90,0,-0.862,0.103,0.199,10.857,-1.463
TlReO3,Tl,Re,1,5,1.7,0.58,cubic,0,3.973,3.973,3.973,90,90,90,0,-1.397,0.203,0,12.542,3.953
TlRhO3,Tl,Rh,3,3,0.98,0.67,orthorhombic,3,5.44,5.58,7.807,90,90,90,0,-0.914,0.054,0,11.85,0.486
TlRuO3,Tl,Ru,1,5,1.7,0.57,orthorhombic,3,5.542,5.576,7.814,90,90,90,0,-0.96,0.147,0.235,12.073,1.828
TlSbO3,Tl,Sb,3,3,0.98,0.76,cubic,0,4.077,4.077,4.077,90,90,90,0,-1.277,0.268,-,13.556,1.98
TlSiO3,Tl,Si,3,3,0.98,0.4,tetragonal,1,3.437,3.437,4.726,90,90,90,0,-1.833,0.356,-,11.169,2.079
TlTaO3,Tl,Ta,1,5,1.7,0.64,tetragonal,1,4.037,4.037,4.093,90,90,90,0.836,-2.422,0.034,0,13.343,5.427
TlTiO3,Tl,Ti,3,3,0.98,0.67,orthorhombic,3,5.513,5.57,7.815,90,90,90,0,-2.156,0.165,0,12,1.152
TlUO3,Tl,U,1,5,1.7,0.76,cubic,0,4.369,4.369,4.369,90,90,90,2.695,-2.745,-0.108,0.2,16.675,4.183
TlVO3,Tl,V,3,3,0.98,0.64,orthorhombic,3,5.406,5.513,7.807,90,90,90,0,-1.754,0.216,0.399,11.634,1.822
TlWO3,Tl,W,1,5,1.7,0.62,cubic,0,4.001,4.001,4.001,90,90,90,0,-1.845,0.111,0,12.807,4.966
TmAgO3,Tm,Ag,3,3,1.05,0.75,cubic,0,4.006,4.006,4.006,90,90,90,0,-1.351,0.728,0,12.857,-0.825
TmAlO3,Tm,Al,3,3,1.05,0.54,orthorhombic,3,5.108,5.339,7.316,90,90,90,6.198,-3.616,-0.017,0,9.976,6.232
TmAsO3,Tm,As,3,3,1.05,0.58,cubic,0,3.977,3.977,3.977,90,90,90,0,-1.825,0.864,0,12.578,1.938
TmBO3,Tm,B,3,3,1.05,0.27,cubic,0,3.422,3.422,3.422,90,90,90,3.153,-2.537,0.74,0,8.012,5.493
TmCeO3,Tm,Ce,2,4,1.09,0.87,cubic,0,4.529,4.529,4.529,90,90,90,0,-2.207,1.519,0,18.576,1.887
TmCoO3,Tm,Co,3,3,1.05,0.61,orthorhombic,3,5.113,5.544,7.404,90,90,90,1.392,-2.566,0.027,0,10.493,2.096
TmCrO3,Tm,Cr,3,3,1.05,0.62,orthorhombic,3,5.209,5.541,7.528,90,90,90,2.496,-3.229,-0.022,0.6,10.864,4.031
TmCuO3,Tm,Cu,3,3,1.05,0.54,orthorhombic,3,5.152,5.823,7.106,90,90,90,0.268,-2.306,0.004,0,10.66,0.436
TmFeO3,Tm,Fe,3,3,1.05,0.65,orthorhombic,3,5.229,5.559,7.559,90,90,90,1.235,-2.805,0.017,1,10.985,2.865
TmGaO3,Tm,Ga,3,3,1.05,0.62,orthorhombic,3,5.206,5.526,7.508,90,90,90,4.07,-2.997,0.019,0,10.799,4.273
TmGeO3,Tm,Ge,2,4,1.09,0.53,cubic,0,3.848,3.848,3.848,90,90,90,0,-2.144,0.672,0,11.398,2.604
TmHfO3,Tm,Hf,2,4,1.09,0.71,cubic,0,4.064,4.064,4.064,90,90,90,0,-3.054,0.64,0,13.424,4.327
TmIrO3,Tm,Ir,2,4,1.09,0.63,cubic,0,3.938,3.938,3.938,90,90,90,0,-1.566,0.878,0,12.215,-1.279
TmMnO3,Tm,Mn,2,4,1.09,0.53,orthorhombic,3,5.22,5.688,7.422,90,90,90,0.411,-2.981,0.043,0.8,11.019,3.296
TmMoO3,Tm,Mo,2,4,1.09,0.65,cubic,0,3.944,3.944,3.944,90,90,90,0,-2.195,0.74,0.004,12.268,1.26
TmNbO3,Tm,Nb,2,4,1.09,0.68,cubic,0,4.018,4.018,4.018,90,90,90,0,-2.518,0.729,0,12.974,2.767
TmNiO3,Tm,Ni,3,3,1.05,0.6,orthorhombic,3,5.096,5.51,7.302,90,90,90,0,-2.435,0.028,0.2,10.252,0.857
TmPbO3,Tm,Pb,2,4,1.09,0.78,orthorhombic,3,5.734,6.002,8.481,90,90,90,0,-2.362,0.221,0,14.592,0.49
TmPdO3,Tm,Pd,2,4,1.09,0.62,cubic,0,3.937,3.937,3.937,90,90,90,0,-1.642,0.583,0,12.206,-0.365
TmPrO3,Tm,Pr,2,4,1.09,0.85,cubic,0,4.483,4.483,4.483,90,90,90,0,-2.304,1.45,0,18.02,-3.262
TmReO3,Tm,Re,2,4,1.09,0.63,cubic,0,3.935,3.935,3.935,90,90,90,0,-1.823,0.936,0.155,12.19,-0.238
TmRhO3,Tm,Rh,2,4,1.09,0.6,cubic,0,3.9,3.9,3.9,90,90,90,0,-1.78,0.653,0.001,11.866,-0.484
TmRuO3,Tm,Ru,2,4,1.09,0.62,cubic,0,3.899,3.899,3.899,90,90,90,0,-1.832,0.704,0.135,11.851,0.27
TmSbO3,Tm,Sb,3,3,1.05,0.76,cubic,0,4.195,4.195,4.195,90,90,90,0,-1.647,1.109,0,14.768,0.334
TmScO3,Tm,Sc,3,3,1.05,0.75,cubic,0,3.969,3.969,3.969,90,90,90,2.748,-3.241,0.629,0,12.507,4.911
TmSiO3,Tm,Si,3,3,1.05,0.4,cubic,0,3.654,3.654,3.654,90,90,90,0,-2.594,0.791,0,9.755,4.438
TmSnO3,Tm,Sn,2,4,1.09,0.69,cubic,0,4.091,4.091,4.091,90,90,90,0,-1.928,0.945,0.001,13.69,2.161
TmTaO3,Tm,Ta,2,4,1.09,0.68,cubic,0,3.996,3.996,3.996,90,90,90,0,-2.601,0.757,0.001,12.763,2.754
TmTbO3,Tm,Tb,2,4,1.09,0.76,cubic,0,4.278,4.278,4.278,90,90,90,0.861,-2.623,1.123,0,15.658,-0.338
TmTeO3,Tm,Te,2,4,1.09,0.97,cubic,0,4.226,4.226,4.226,90,90,90,0,-1.339,1.249,0.003,15.098,0.499
TmThO3,Tm,Th,2,4,1.09,0.94,cubic,0,4.554,4.554,4.554,90,90,90,0,-2.711,1.161,0.013,18.888,1.886
TmTiO3,Tm,Ti,2,4,1.09,0.61,orthorhombic,3,5.245,5.631,7.575,90,90,90,0,-3.482,0.045,0.2,11.186,4.479
TmUO3,Tm,U,2,4,1.09,0.89,cubic,0,4.384,4.384,4.384,90,90,90,0,-2.505,1.179,0.514,16.852,1.536
TmVO3,Tm,V,2,4,1.09,0.58,orthorhombic,3,5.245,5.632,7.558,90,90,90,1.382,-3.293,-0.011,0.4,11.162,3.816
TmWO3,Tm,W,2,4,1.09,0.66,cubic,0,3.953,3.953,3.953,90,90,90,0,-2.119,0.826,0.002,12.354,0.777
TmZrO3,Tm,Zr,2,4,1.09,0.72,cubic,0,4.119,4.119,4.119,90,90,90,0,-2.882,0.728,0,13.976,3.957
UAgO3,U,Ag,3,3,1.03,0.75,orthorhombic,3,5.53,6.255,7.831,90,90,90,0,-2.184,0.33,0.368,13.544,-2.108
UAlO3,U,Al,3,3,1.03,0.54,orthorhombic,3,5.34,5.349,7.54,90,90,90,1.428,-3.392,-0.011,0.6,10.771,4.383
UAsO3,U,As,3,3,1.03,0.58,cubic,0,4.031,4.031,4.031,90,90,90,0,-1.816,0.957,0.657,13.098,1.42
UBO3,U,B,4,2,1.17,0.27,cubic,0,3.585,3.585,3.585,90,90,90,0,-2.116,1.062,0.579,9.215,3.382
UBeO3,U,Be,4,2,1.17,0.45,cubic,0,3.58,3.58,3.58,90,90,90,0,-2.89,0.588,0.4,9.175,2.891
UBiO3,U,Bi,3,3,1.03,1.03,cubic,0,4.346,4.346,4.346,90,90,90,0,-1.527,1.256,0.705,16.421,-
UCaO3,U,Ca,4,2,1.17,1,cubic,0,4.196,4.196,4.196,90,90,90,0,-2.262,1.307,0.409,14.78,-
UCdO3,U,Cd,4,2,1.17,0.95,orthorhombic,3,5.62,6.035,8.278,90,90,90,2.146,-2.6,0.186,0.4,14.039,-0.036
UCeO3,U,Ce,3,3,1.03,1.01,cubic,0,4.547,4.547,4.547,90,90,90,0,-2.258,1.221,0.6,18.799,0.678
UCoO3,U,Co,3,3,1.03,0.61,cubic,0,3.764,3.764,3.764,90,90,90,0,-2.265,0.524,0.675,10.666,-
UCrO3,U,Cr,3,3,1.03,0.62,rhombohedral,2,5.471,5.471,5.471,61.2,61.2,61.2,0.418,-2.959,0.16,1.2,11.898,4.983
UCuO3,U,Cu,4,2,1.17,0.73,rhombohedral,2,5.33,5.33,5.33,63.9,63.9,63.9,0,-2.345,0.276,0.194,11.638,-
UDyO3,U,Dy,3,3,1.03,0.91,cubic,0,4.287,4.287,4.287,90,90,90,0,-2.815,0.829,0.6,15.753,3.396
UErO3,U,Er,3,3,1.03,0.89,cubic,0,4.244,4.244,4.244,90,90,90,0,-2.909,0.758,0.6,15.284,-
UEuO3,U,Eu,3,3,1.03,0.95,cubic,0,4.276,4.276,4.276,90,90,90,0,-2.066,1.584,0.458,15.639,-6.272
UFeO3,U,Fe,3,3,1.03,0.65,cubic,0,3.898,3.898,3.898,90,90,90,0,-2.256,0.644,1.57,11.842,2.177
UGaO3,U,Ga,3,3,1.03,0.62,orthorhombic,3,5.475,5.502,7.862,90,90,90,1.067,-2.75,0.242,0.6,11.842,3.046
UGdO3,U,Gd,3,3,1.03,0.94,cubic,0,4.337,4.337,4.337,90,90,90,0,-2.706,0.909,0.6,16.31,2.735
UGeO3,U,Ge,3,3,1.03,0.63,cubic,0,3.926,3.926,3.926,90,90,90,0,-2.099,0.759,0.693,12.104,2.243
UHfO3,U,Hf,3,3,1.03,0.71,orthorhombic,3,5.629,5.974,8.067,90,90,90,0,-3.25,0.199,0.621,13.562,5.259
UHgO3,U,Hg,4,2,1.17,1.02,orthorhombic,3,5.681,6.135,8.838,90,90,90,1.773,-2.226,0.291,0.4,15.403,-2.345
UHoO3,U,Ho,3,3,1.03,0.9,cubic,0,4.267,4.267,4.267,90,90,90,0,-2.864,0.792,0.6,15.541,-
UInO3,U,In,3,3,1.03,0.8,tetragonal,1,4.062,4.062,4.421,90,90,90,0,-2.182,0.724,0.595,14.588,-
UIrO3,U,Ir,3,3,1.03,0.68,cubic,0,4.003,4.003,4.003,90,90,90,0,-1.678,0.933,0.6,12.83,0.675
ULaO3,U,La,3,3,1.03,1.03,cubic,0,4.576,4.576,4.576,90,90,90,0,-2.388,1.187,0.601,19.16,1.159
ULiO3,U,Li,5,1,0.84,0.76,orthorhombic,3,5.167,5.647,7.359,90,90,90,2.256,-3.047,0.099,0.2,10.735,-2.292
ULuO3,U,Lu,3,3,1.03,0.86,cubic,0,4.181,4.181,4.181,90,90,90,0,-3.039,0.661,0.6,14.615,-
UMgO3,U,Mg,4,2,1.17,0.72,orthorhombic,3,5.348,5.732,7.683,90,90,90,3.156,-3.363,0.107,0.4,11.777,0.9
UMnO3,U,Mn,3,3,1.03,0.65,orthorhombic,3,5.463,5.94,7.879,90,90,90,1.822,-2.991,0.115,1.4,12.781,3.81
UMoO3,U,Mo,3,3,1.03,0.69,cubic,0,4,4,4,90,90,90,0,-2.307,0.631,0.621,12.796,2.262
UNbO3,U,Nb,3,3,1.03,0.72,cubic,0,4.064,4.064,4.064,90,90,90,0,-2.632,0.521,0.662,13.425,3.631
UNdO3,U,Nd,3,3,1.03,0.98,cubic,0,4.463,4.463,4.463,90,90,90,0,-2.423,1.106,0.59,17.783,-
UNiO3,U,Ni,4,2,1.17,0.69,cubic,0,3.789,3.789,3.789,90,90,90,0,-2.136,0.652,0.8,10.883,0.946
UPdO3,U,Pd,4,2,1.17,0.86,cubic,0,4.005,4.005,4.005,90,90,90,0,-1.758,0.793,0.592,12.851,0.772
UPrO3,U,Pr,3,3,1.03,0.99,cubic,0,4.513,4.513,4.513,90,90,90,0,-2.348,1.158,0.581,18.388,-
UReO3,U,Re,3,3,1.03,0.63,cubic,0,3.993,3.993,3.993,90,90,90,0,-1.93,0.874,0.637,12.729,1.647
URhO3,U,Rh,3,3,1.03,0.67,cubic,0,3.97,3.97,3.97,90,90,90,0,-1.883,0.72,0.57,12.518,0.54
URuO3,U,Ru,3,3,1.03,0.68,cubic,0,3.962,3.962,3.962,90,90,90,0,-1.941,0.731,0.565,12.441,0.962
USbO3,U,Sb,3,3,1.03,0.76,cubic,0,4.228,4.228,4.228,90,90,90,0,-1.742,1.076,0.725,15.118,0.893
UScO3,U,Sc,3,3,1.03,0.75,orthorhombic,3,5.6,5.831,8.039,90,90,90,2.023,-3.609,0.013,0.6,13.125,4.046
USiO3,U,Si,4,2,1.17,0.4,cubic,0,3.771,3.771,3.771,90,90,90,0,-2.462,0.76,0.734,10.727,3.318
USmO3,U,Sm,3,3,1.03,0.96,cubic,0,4.401,4.401,4.401,90,90,90,0,-2.56,1.009,0.6,17.051,2.588
USnO3,U,Sn,3,3,1.03,0.69,cubic,0,4.112,4.112,4.112,90,90,90,0,-1.988,0.919,0.744,13.908,2.06
USrO3,U,Sr,4,2,1.17,1.18,orthorhombic,3,5.809,5.967,9.651,90,90,90,1.939,-3.326,0.161,0.4,16.725,-7.732
UTaO3,U,Ta,3,3,1.03,0.72,rhombohedral,2,5.388,5.388,5.388,67.9,67.9,67.9,0,-2.783,0.385,0.529,12.908,3.37
UTbO3,U,Tb,3,3,1.03,0.92,cubic,0,4.31,4.31,4.31,90,90,90,0,-2.631,0.867,0.6,16.016,3.219
UTeO3,U,Te,2,4,1.17,0.97,cubic,0,4.263,4.263,4.263,90,90,90,0,-1.458,1.223,0.768,15.493,-
UTiO3,U,Ti,3,3,1.03,0.67,orthorhombic,3,5.463,5.692,7.888,90,90,90,0,-3.271,0.118,0.414,12.263,5.163
UTlO3,U,Tl,3,3,1.03,0.89,orthorhombic,3,5.939,6.187,8.483,90,90,90,0,-2.238,0.507,0.4,15.585,-0.975
UTmO3,U,Tm,3,3,1.03,0.88,cubic,0,4.218,4.218,4.218,90,90,90,0,-2.966,0.719,0.6,15.012,3.505
U2O3,U,U,3,3,1.03,1.03,cubic,0,4.416,4.416,4.416,90,90,90,0,-2.634,0.804,1.192,17.224,-
UVO3,U,V,3,3,1.03,0.64,orthorhombic,3,5.392,5.949,7.76,90,90,90,1.685,-3.176,0.02,1,12.447,4.461
UWO3,U,W,3,3,1.03,0.66,cubic,0,4.003,4.003,4.003,90,90,90,0,-2.213,0.731,0.644,12.827,2.108
UYO3,U,Y,3,3,1.03,0.9,cubic,0,4.287,4.287,4.287,90,90,90,0,-2.791,0.832,0.6,15.753,2.554
UYbO3,U,Yb,3,3,1.03,0.87,cubic,0,4.136,4.136,4.136,90,90,90,0,-2.341,1.354,0.401,14.146,-3.14
UZnO3,U,Zn,4,2,1.17,0.74,cubic,0,3.864,3.864,3.864,90,90,90,0,-2.187,0.764,0.511,11.536,1.141
UZrO3,U,Zr,3,3,1.03,0.72,orthorhombic,3,5.669,6.188,7.847,90,90,90,0,-3.182,0.219,0.51,13.763,5.154
VBO3,V,B,3,3,0.64,0.27,cubic,0,3.331,3.331,3.331,90,90,90,0,-1.478,1.21,0.4,7.393,0.401
VCeO3,V,Ce,2,4,0.79,0.87,orthorhombic,3,5.738,5.883,8.542,90,90,90,1.39,-2.861,0.298,0.4,14.417,-7.387
VCoO3,V,Co,2,4,0.79,0.53,cubic,0,3.633,3.633,3.633,90,90,90,0,-1.09,0.915,0.394,9.588,-1.853
VCrO3,V,Cr,2,4,0.79,0.55,cubic,0,3.733,3.733,3.733,90,90,90,0,-1.686,0.87,1,10.403,-0.869
VFeO3,V,Fe,2,4,0.79,0.59,cubic,0,3.753,3.753,3.753,90,90,90,0,-1.293,0.852,1.4,10.568,-
VGeO3,V,Ge,2,4,0.79,0.53,cubic,0,3.713,3.713,3.713,90,90,90,0,-1.495,0.67,0.595,10.236,2.025
VHfO3,V,Hf,2,4,0.79,0.71,cubic,0,4.046,4.046,4.046,90,90,90,0,-2.528,0.68,0.6,13.25,3.531
VIrO3,V,Ir,2,4,0.79,0.63,cubic,0,3.901,3.901,3.901,90,90,90,0,-0.674,1.148,0.415,11.877,-1
VMnO3,V,Mn,2,4,0.79,0.53,cubic,0,3.746,3.746,3.746,90,90,90,0,-1.521,0.861,1.2,10.509,-1.571
VMoO3,V,Mo,2,4,0.79,0.65,cubic,0,3.907,3.907,3.907,90,90,90,0,-1.616,0.668,0.662,11.929,3.127
VNbO3,V,Nb,2,4,0.79,0.68,cubic,0,3.989,3.989,3.989,90,90,90,0,-2.035,0.527,0.693,12.697,3.495
VNiO3,V,Ni,2,4,0.79,0.48,cubic,0,3.639,3.639,3.639,90,90,90,0,-0.965,1.039,0.22,9.639,-1.428
VPbO3,V,Pb,2,4,0.79,0.78,rhombohedral,2,6.164,6.164,6.164,58.9,58.9,58.9,1.394,-1.794,0.288,0.2,16.128,-
VPdO3,V,Pd,2,4,0.79,0.62,cubic,0,3.908,3.908,3.908,90,90,90,0,-0.525,1.236,0.482,11.941,-3.547
VPrO3,V,Pr,2,4,0.79,0.85,orthorhombic,3,5.723,5.819,8.479,90,90,90,1.315,-2.888,0.292,0.4,14.118,-7.01
VReO3,V,Re,2,4,0.79,0.63,cubic,0,3.891,3.891,3.891,90,90,90,0,-1.253,0.831,0.671,11.78,1.246
VRhO3,V,Rh,2,4,0.79,0.6,cubic,0,3.878,3.878,3.878,90,90,90,0,-0.75,1.064,0.338,11.669,-1.777
VRuO3,V,Ru,2,4,0.79,0.62,cubic,0,3.872,3.872,3.872,90,90,90,0,-0.941,0.944,0.28,11.609,-0.311
VSbO3,V,Sb,2,4,0.79,0.68,cubic,0,4.035,4.035,4.035,90,90,90,0,-1.161,0.944,0.693,13.135,0.871
VSiO3,V,Si,2,4,0.79,0.4,cubic,0,3.533,3.533,3.533,90,90,90,0,-2.177,0.596,0.6,8.819,4.538
VSnO3,V,Sn,2,4,0.79,0.69,orthorhombic,3,5.362,5.585,7.763,90,90,90,0,-1.985,0.223,0.597,11.623,1.47
VTaO3,V,Ta,2,4,0.79,0.68,cubic,0,3.966,3.966,3.966,90,90,90,0,-2.226,0.509,0.727,12.481,4.183
VTbO3,V,Tb,2,4,0.79,0.76,cubic,0,4.291,4.291,4.291,90,90,90,0,-1.58,1.553,0.401,15.806,-5.874
VTeO3,V,Te,2,4,0.79,0.97,cubic,0,4.133,4.133,4.133,90,90,90,0,-0.852,1.048,0.674,14.115,-
VThO3,V,Th,2,4,0.79,0.94,cubic,0,4.54,4.54,4.54,90,90,90,0,-2.2,1.247,0.601,18.712,-1.902
VTiO3,V,Ti,2,4,0.79,0.61,cubic,0,3.831,3.831,3.831,90,90,90,0,-2.344,0.569,0.6,11.243,1.646
VUO3,V,U,2,4,0.79,0.89,cubic,0,4.308,4.308,4.308,90,90,90,0,-2.295,0.901,0.601,15.994,1.009
VWO3,V,W,2,4,0.79,0.66,cubic,0,3.913,3.913,3.913,90,90,90,0,-1.676,0.635,0.704,11.983,3.456
VZrO3,V,Zr,2,4,0.79,0.72,cubic,0,4.104,4.104,4.104,90,90,90,0,-2.328,0.756,0.6,13.826,0.821
WAgO3,W,Ag,3,3,0.66,0.75,orthorhombic,3,5.252,6.199,8.389,90,90,90,0.532,-1.414,0.543,0,13.656,-12.443
WAlO3,W,Al,3,3,0.66,0.54,cubic,0,3.646,3.646,3.646,90,90,90,0,-1.41,1.21,0.576,9.692,1.043
WAsO3,W,As,3,3,0.66,0.58,cubic,0,3.903,3.903,3.903,90,90,90,0,0.022,1.978,0.755,11.893,-1.385
WBO3,W,B,3,3,0.66,0.27,cubic,0,3.401,3.401,3.401,90,90,90,0,-0.52,1.771,0.464,7.865,0.235
WBaO3,W,Ba,4,2,0.66,1.35,rhombohedral,2,6.269,6.269,6.269,63.9,63.9,63.9,1.695,-2.419,0.308,0,18.913,-18.683
WBeO3,W,Be,4,2,0.66,0.45,cubic,0,3.403,3.403,3.403,90,90,90,0,-1.232,1.26,0.274,7.882,0
WBiO3,W,Bi,3,3,0.66,1.03,cubic,0,4.239,4.239,4.239,90,90,90,0,0.287,2.243,0.835,15.235,-0.405
WCaO3,W,Ca,4,2,0.66,1,rhombohedral,2,5.777,5.777,5.777,62.7,62.7,62.7,0.855,-2.37,0.393,0,14.438,-13.482
WCdO3,W,Cd,4,2,0.66,0.95,rhombohedral,2,5.444,5.444,5.444,70.4,70.4,70.4,1.108,-1.494,0.462,0,13.866,-12.523
WCeO3,W,Ce,3,3,0.66,1.01,cubic,0,4.508,4.508,4.508,90,90,90,0,-0.331,2.484,0.601,18.322,-12.106
WCoO3,W,Co,3,3,0.66,0.61,cubic,0,3.648,3.648,3.648,90,90,90,0,-0.281,1.676,0.363,9.707,-2.7
WCrO3,W,Cr,3,3,0.66,0.62,cubic,0,3.799,3.799,3.799,90,90,90,0,-0.8,1.434,1.199,10.965,-2.864
WCuO3,W,Cu,3,3,0.66,0.54,cubic,0,3.686,3.686,3.686,90,90,90,0,-0.03,1.927,0.482,10.017,-6.148
WDyO3,W,Dy,3,3,0.66,0.91,cubic,0,4.253,4.253,4.253,90,90,90,0,-0.843,2.1,0.602,15.386,-9.02
WErO3,W,Er,3,3,0.66,0.89,cubic,0,4.203,4.203,4.203,90,90,90,0,-0.938,2.077,0.6,14.851,-8.321
WEuO3,W,Eu,3,3,0.66,0.95,rhombohedral,2,5.838,5.838,5.838,63.5,63.5,63.5,0.928,-2.538,0.375,0,15.144,-15.419
WFeO3,W,Fe,3,3,0.66,0.65,cubic,0,3.808,3.808,3.808,90,90,90,0,-0.35,1.651,1.592,11.042,-2.876
WGaO3,W,Ga,3,3,0.66,0.62,rhombohedral,2,5.259,5.259,5.259,76.2,76.2,76.2,0,-1.488,0.542,0,13.458,-2.514
WGdO3,W,Gd,3,3,0.66,0.94,cubic,0,4.308,4.308,4.308,90,90,90,0,-0.735,2.244,0.598,15.992,-9.774
WGeO3,W,Ge,2,4,0.66,0.53,cubic,0,3.787,3.787,3.787,90,90,90,0,-0.359,1.598,0.762,10.859,0.254
WHfO3,W,Hf,2,4,0.66,0.71,cubic,0,4.063,4.063,4.063,90,90,90,0,-1.464,1.492,0.8,13.415,-2.673
WHgO3,W,Hg,4,2,0.66,1.02,cubic,0,4.147,4.147,4.147,90,90,90,0,0.912,2.868,0.661,14.263,-14.081
WHoO3,W,Ho,3,3,0.66,0.9,cubic,0,4.227,4.227,4.227,90,90,90,0,-0.892,2.063,0.601,15.104,-8.659
WInO3,W,In,3,3,0.66,0.8,rhombohedral,2,5.494,5.494,5.494,70.4,70.4,70.4,0,-1.486,0.47,0,14.255,-7.887
WIrO3,W,Ir,3,3,0.66,0.68,cubic,0,3.924,3.924,3.924,90,90,90,0,0.335,2.291,0.571,12.082,-6.691
WLaO3,W,La,3,3,0.66,1.03,cubic,0,4.469,4.469,4.469,90,90,90,0,-0.466,2.458,0.6,17.849,-11.681