Chemical formula,A,B,Valence A,Valence B,Radius A [ang],Radius B [ang],Crystal Type,Crystal Type,a [ang],b [ang],c [ang],alpha [deg],beta [deg],gamma [deg],Band gap [eV],Formation energy [eV/atom],Stability [eV/atom],Magnetic moment [mu_B],Volume per atom [A^3/atom],Vacancy energy [eV/O atom]
ReAgO3,Re,Ag,5,1,0.58,1.15,cubic,0,4,4,4,90,90,90,0,0.863,2.384,0.855,12.798,-11.335
ReBO3,Re,B,5,1,0.58,0.27,cubic,0,3.39,3.39,3.39,90,90,90,0,-0.225,1.855,0.452,7.795,-0.383
ReBeO3,Re,Be,4,2,0.63,0.45,cubic,0,3.404,3.404,3.404,90,90,90,0,-0.834,1.377,0.347,7.89,-1.923
ReCoO3,Re,Co,5,1,0.58,0.75,cubic,0,3.663,3.663,3.663,90,90,90,0,0.006,1.529,0.767,9.833,-5.095
ReCsO3,Re,Cs,5,1,0.58,1.67,cubic,0,4.449,4.449,4.449,90,90,90,0,1.459,3.389,1.033,17.612,-
ReCuO3,Re,Cu,5,1,0.58,0.77,cubic,0,3.702,3.702,3.702,90,90,90,0,0.264,1.785,0.733,10.15,-6.222
ReFeO3,Re,Fe,5,1,0.58,0.78,cubic,0,3.809,3.809,3.809,90,90,90,0,-0.135,1.497,1.795,11.05,-4.592
ReKO3,Re,K,5,1,0.58,1.38,rhombohedral,2,6.323,6.323,6.323,61.2,61.2,61.2,1.623,-1.718,0.21,0,18.357,-10.916
ReLiO3,Re,Li,5,1,0.58,0.76,orthorhombic,3,4.789,5.019,7.817,90,90,90,0,-1.694,0.294,0,9.395,-6.902
ReNaO3,Re,Na,5,1,0.58,1.02,rhombohedral,2,5.93,5.93,5.93,59.3,59.3,59.3,0.856,-1.642,0.297,0,14.518,-15.373
ReNbO3,Re,Nb,5,1,0.58,0.72,cubic,0,4.027,4.027,4.027,90,90,90,0,-0.881,1.358,0.96,13.058,1.303
ReNiO3,Re,Ni,5,1,0.58,0.69,cubic,0,3.685,3.685,3.685,90,90,90,0,0.087,1.608,0.972,10.01,-4.162
ReRbO3,Re,Rb,5,1,0.58,1.52,rhombohedral,2,6.531,6.531,6.531,62.8,62.8,62.8,1.753,-1.739,0.183,0,20.938,-
ReRhO3,Re,Rh,5,1,0.58,0.67,cubic,0,3.907,3.907,3.907,90,90,90,0,0.351,1.872,0.727,11.925,-
RhAgO3,Rh,Ag,3,3,0.67,0.75,cubic,0,3.993,3.993,3.993,90,90,90,0,0.585,1.314,0.733,12.73,-6.797
RhAlO3,Rh,Al,3,3,0.67,0.54,cubic,0,3.653,3.653,3.653,90,90,90,0,-1.32,0.779,0.618,9.753,-1.36
RhAsO3,Rh,As,3,3,0.67,0.58,cubic,0,3.792,3.792,3.792,90,90,90,0,-0.341,0.852,0.523,10.905,0.405
RhBO3,Rh,B,3,3,0.67,0.27,cubic,0,3.367,3.367,3.367,90,90,90,0,-0.449,1.329,0.012,7.636,-1.124
RhBeO3,Rh,Be,4,2,0.6,0.45,cubic,0,3.422,3.422,3.422,90,90,90,0,-0.776,1.033,0.002,8.012,-3.7
RhBiO3,Rh,Bi,1,5,0.67,0.76,cubic,0,4.195,4.195,4.195,90,90,90,0,-0.143,1.096,0.491,14.766,-3.897
RhCeO3,Rh,Ce,3,3,0.67,1.01,orthorhombic,3,5.604,5.941,8.537,90,90,90,0.48,-1.895,0.393,0,14.211,-6.947
RhCoO3,Rh,Co,3,3,0.67,0.61,cubic,0,3.682,3.682,3.682,90,90,90,0,-0.195,0.957,1.061,9.984,-0.711
RhCrO3,Rh,Cr,3,3,0.67,0.62,cubic,0,3.754,3.754,3.754,90,90,90,0,-0.803,0.905,0.867,10.584,-1.031
RhCuO3,Rh,Cu,3,3,0.67,0.54,cubic,0,3.717,3.717,3.717,90,90,90,0,0.102,1.047,0.809,10.267,-4.112
RhDyO3,Rh,Dy,3,3,0.67,0.91,cubic,0,4.291,4.291,4.291,90,90,90,0,-1.03,1.362,0.801,15.805,-5.792
RhErO3,Rh,Er,3,3,0.67,0.89,cubic,0,4.251,4.251,4.251,90,90,90,0,-1.097,1.319,0.806,15.362,-5.458
RhEuO3,Rh,Eu,3,3,0.67,0.95,orthorhombic,3,5.699,5.881,7.961,90,90,90,0,-1.726,0.383,0.001,13.343,-9.624
RhFeO3,Rh,Fe,3,3,0.67,0.65,cubic,0,3.776,3.776,3.776,90,90,90,0,-0.448,0.844,1.522,10.772,-2.494
RhGaO3,Rh,Ga,3,3,0.67,0.62,cubic,0,3.807,3.807,3.807,90,90,90,0,-0.567,0.951,0.802,11.032,-2.905
RhGdO3,Rh,Gd,3,3,0.67,0.94,cubic,0,4.334,4.334,4.334,90,90,90,0,-0.957,1.451,0.816,16.285,-6.12
RhHfO3,Rh,Hf,3,3,0.67,0.71,cubic,0,4.055,4.055,4.055,90,90,90,0,-1.79,0.825,0.599,13.338,0.072
RhHoO3,Rh,Ho,3,3,0.67,0.9,cubic,0,4.271,4.271,4.271,90,90,90,0,-1.065,1.339,0.803,15.578,-5.625
RhInO3,Rh,In,3,3,0.67,0.8,cubic,0,4.108,4.108,4.108,90,90,90,0,-0.154,1.235,0.804,13.866,-5.19
RhIrO3,Rh,Ir,1,5,0.67,0.57,cubic,0,3.884,3.884,3.884,90,90,90,0,-0.007,0.943,0.506,11.719,0.624
RhLaO3,Rh,La,3,3,0.67,1.03,orthorhombic,3,5.623,5.901,8.525,90,90,90,0.397,-2.013,0.373,0,14.146,-6.598
RhLuO3,Rh,Lu,3,3,0.67,0.86,cubic,0,4.188,4.188,4.188,90,90,90,0,-1.197,1.251,0.8,14.691,-4.931
RhMnO3,Rh,Mn,3,3,0.67,0.65,cubic,0,3.763,3.763,3.763,90,90,90,0,-0.637,0.851,1.333,10.656,-1.999
RhMoO3,Rh,Mo,3,3,0.67,0.69,cubic,0,3.898,3.898,3.898,90,90,90,0,-1.034,0.697,0.396,11.844,3.479
RhNbO3,Rh,Nb,1,5,0.67,0.64,cubic,0,3.983,3.983,3.983,90,90,90,0,-1.463,0.675,0.4,12.642,2.003
RhNdO3,Rh,Nd,3,3,0.67,0.98,orthorhombic,3,5.487,5.883,8.46,90,90,90,0.355,-1.95,0.386,0,13.655,-6.698
RhNiO3,Rh,Ni,3,3,0.67,0.6,cubic,0,3.69,3.69,3.69,90,90,90,0,-0.036,1.083,1.007,10.05,-3.845
RhPdO3,Rh,Pd,3,3,0.67,0.76,cubic,0,3.924,3.924,3.924,90,90,90,0,0.257,1.139,0.765,12.081,-2.47
RhPrO3,Rh,Pr,3,3,0.67,0.99,orthorhombic,3,5.542,5.911,8.498,90,90,90,0.344,-1.925,0.39,-0.001,13.917,-6.823
RhReO3,Rh,Re,3,3,0.67,0.63,cubic,0,3.872,3.872,3.872,90,90,90,0,-0.703,0.817,0.37,11.608,3.064
Rh2O3,Rh,Rh,3,3,0.67,0.67,cubic,0,3.88,3.88,3.88,90,90,90,0,-0.004,0.93,0.762,11.681,0.096
RhRuO3,Rh,Ru,3,3,0.67,0.68,cubic,0,3.853,3.853,3.853,90,90,90,0,-0.271,0.801,0.312,11.438,1.431
RhSbO3,Rh,Sb,1,5,0.67,0.6,cubic,0,3.982,3.982,3.982,90,90,90,0,-0.553,0.75,0.449,12.63,1.186
RhScO3,Rh,Sc,3,3,0.67,0.75,cubic,0,4.018,4.018,4.018,90,90,90,0,-1.273,1.098,0.8,12.974,-
RhSmO3,Rh,Sm,3,3,0.67,0.96,cubic,0,4.389,4.389,4.389,90,90,90,0,-0.862,1.509,0.808,16.907,-6.45
RhTaO3,Rh,Ta,1,5,0.67,0.64,cubic,0,3.961,3.961,3.961,90,90,90,0,-1.699,0.648,0.4,12.425,4.232
RhTbO3,Rh,Tb,3,3,0.67,0.92,cubic,0,4.312,4.312,4.312,90,90,90,0,-0.863,1.421,0.799,16.037,-5.957
RhTiO3,Rh,Ti,3,3,0.67,0.67,cubic,0,3.846,3.846,3.846,90,90,90,0,-1.562,0.695,0.6,11.375,0.396
RhTlO3,Rh,Tl,3,3,0.67,0.89,orthorhombic,3,5.372,5.5,8.629,90,90,90,0,-0.616,0.353,0.001,12.748,-7.142
RhTmO3,Rh,Tm,3,3,0.67,0.88,cubic,0,4.226,4.226,4.226,90,90,90,0,-1.14,1.292,0.802,15.091,-5.247
RhUO3,Rh,U,1,5,0.67,0.76,cubic,0,4.294,4.294,4.294,90,90,90,0,-1.826,0.777,0.2,15.838,1.61
RhVO3,Rh,V,3,3,0.67,0.64,cubic,0,3.762,3.762,3.762,90,90,90,0,-1.122,0.692,0.576,10.648,0.276
RhWO3,Rh,W,3,3,0.67,0.66,cubic,0,3.9,3.9,3.9,90,90,90,0,-1.155,0.802,0.365,11.861,4.107
RhYO3,Rh,Y,3,3,0.67,0.9,cubic,0,4.308,4.308,4.308,90,90,90,0,-1.003,1.368,0.804,15.99,-5.775
RhYbO3,Rh,Yb,3,3,0.67,0.87,orthorhombic,3,5.663,5.678,7.555,90,90,90,0,-1.754,0.36,0,12.146,-8.752
RhZrO3,Rh,Zr,3,3,0.67,0.72,cubic,0,4.114,4.114,4.114,90,90,90,0,-1.599,0.892,0.6,13.927,-0.656
RuAgO3,Ru,Ag,5,1,0.57,1.15,orthorhombic,3,5.27,5.493,8.87,90,90,90,0,-0.656,0.209,-0.001,12.837,-7.277
RuBO3,Ru,B,3,3,0.68,0.27,cubic,0,3.356,3.356,3.356,90,90,90,0,-0.446,1.435,0.048,7.562,-0.679
RuCeO3,Ru,Ce,2,4,0.68,0.87,orthorhombic,3,5.797,5.9,8.318,90,90,90,0,-1.915,0.415,0.002,14.222,-7.543
RuCoO3,Ru,Co,2,4,0.68,0.53,cubic,0,3.662,3.662,3.662,90,90,90,0,-0.204,1.056,0.945,9.821,-2.148
RuCrO3,Ru,Cr,2,4,0.68,0.55,cubic,0,3.79,3.79,3.79,90,90,90,0,-0.791,1.02,1.344,10.888,-0.858
RuCuO3,Ru,Cu,5,1,0.57,0.77,cubic,0,3.713,3.713,3.713,90,90,90,0,0.071,1.154,0.994,10.235,-4.047
RuFeO3,Ru,Fe,2,4,0.68,0.59,cubic,0,3.79,3.79,3.79,90,90,90,0,-0.434,0.967,1.763,10.889,-2.602
RuGeO3,Ru,Ge,2,4,0.68,0.53,cubic,0,3.745,3.745,3.745,90,90,90,0,-0.637,0.876,0.803,10.506,0.465
RuHfO3,Ru,Hf,2,4,0.68,0.71,cubic,0,4.058,4.058,4.058,90,90,90,0,-1.737,0.946,0.798,13.366,0.708
RuIrO3,Ru,Ir,2,4,0.68,0.63,cubic,0,3.895,3.895,3.895,90,90,90,0,0.074,1.153,0.804,11.822,-
RuKO3,Ru,K,5,1,0.57,1.38,orthorhombic,3,6.246,6.378,9.503,90,90,90,0.273,-1.187,0.265,0.2,18.927,-7.311
RuLiO3,Ru,Li,5,1,0.57,0.76,orthorhombic,3,5.092,5.402,6.547,90,90,90,0,-1.264,0.231,0.039,9.005,-6.885
RuMnO3,Ru,Mn,2,4,0.68,0.53,cubic,0,3.772,3.772,3.772,90,90,90,0,-0.63,0.97,1.577,10.73,-1.922
RuMoO3,Ru,Mo,2,4,0.68,0.65,cubic,0,3.911,3.911,3.911,90,90,90,0,-0.9,0.83,0.624,11.961,3.405
RuNaO3,Ru,Na,5,1,0.57,1.02,orthorhombic,3,5.361,5.519,8.472,90,90,90,0,-1.203,0.259,0.001,12.535,-13.44
RuNbO3,Ru,Nb,2,4,0.68,0.68,cubic,0,3.993,3.993,3.993,90,90,90,0,-1.319,0.853,0.613,12.729,3.675
RuNiO3,Ru,Ni,2,4,0.68,0.48,cubic,0,3.65,3.65,3.65,90,90,90,0,-0.048,1.208,1.157,9.724,-3.858
RuPbO3,Ru,Pb,2,4,0.68,0.78,rhombohedral,2,5.873,5.873,5.873,64.8,64.8,64.8,0.216,-0.941,0.347,0.4,15.822,-
RuPdO3,Ru,Pd,2,4,0.68,0.62,cubic,0,3.921,3.921,3.921,90,90,90,0,0.264,1.283,0.963,12.053,-0.891
RuPrO3,Ru,Pr,2,4,0.68,0.85,cubic,0,4.471,4.471,4.471,90,90,90,0,-0.655,1.737,1.001,17.87,-7.374
RuRbO3,Ru,Rb,5,1,0.57,1.52,orthorhombic,3,5.145,6.021,11.379,90,90,90,0,-1.33,0.124,0.129,17.622,-5.944
RuReO3,Ru,Re,2,4,0.68,0.63,cubic,0,3.889,3.889,3.889,90,90,90,0,-0.559,0.962,0.611,11.763,2.343
RuRhO3,Ru,Rh,2,4,0.68,0.6,cubic,0,3.879,3.879,3.879,90,90,90,0,0.036,1.108,0.882,11.671,-0.138
RuSbO3,Ru,Sb,2,4,0.68,0.68,cubic,0,4.013,4.013,4.013,90,90,90,0,-0.406,0.965,0.682,12.925,0.985
RuSiO3,Ru,Si,2,4,0.68,0.4,cubic,0,3.583,3.583,3.583,90,90,90,0,-1.257,0.967,0.8,9.203,3.678
RuSnO3,Ru,Sn,2,4,0.68,0.69,cubic,0,4.016,4.016,4.016,90,90,90,0,-0.564,0.988,0.8,12.952,1.963
RuTaO3,Ru,Ta,2,4,0.68,0.68,cubic,0,3.969,3.969,3.969,90,90,90,0,-1.532,0.85,0.602,12.505,4.265
RuTbO3,Ru,Tb,2,4,0.68,0.76,cubic,0,4.295,4.295,4.295,90,90,90,0,-0.809,1.553,1.001,15.85,-6.28
RuTeO3,Ru,Te,2,4,0.68,0.97,cubic,0,4.117,4.117,4.117,90,90,90,0,-0.102,1.084,0.691,13.96,0.697
RuThO3,Ru,Th,2,4,0.68,0.94,cubic,0,4.528,4.528,4.528,90,90,90,0,-1.453,1.469,0.8,18.571,-2.55
RuTiO3,Ru,Ti,2,4,0.68,0.61,cubic,0,3.851,3.851,3.851,90,90,90,0,-1.519,0.807,0.798,11.424,0.353
RuUO3,Ru,U,2,4,0.68,0.89,cubic,0,4.302,4.302,4.302,90,90,90,0,-1.637,1.035,0.816,15.924,1.326
RuVO3,Ru,V,2,4,0.68,0.58,cubic,0,3.778,3.778,3.778,90,90,90,0,-1.048,0.837,0.876,10.785,-0.697
RuWO3,Ru,W,2,4,0.68,0.66,cubic,0,3.913,3.913,3.913,90,90,90,0,-0.985,0.972,0.597,11.986,3.739
RuZrO3,Ru,Zr,2,4,0.68,0.72,cubic,0,4.113,4.113,4.113,90,90,90,0,-1.544,1.015,0.801,13.92,-0.259
SbAgO3,Sb,Ag,3,3,0.76,0.75,orthorhombic,3,5.427,5.695,8.698,90,90,90,0.206,-0.935,0.331,-,13.442,-0.728
SbAlO3,Sb,Al,3,3,0.76,0.54,tetragonal,1,3.592,3.592,4.352,90,90,90,1.287,-2.282,0.141,-,11.23,4.409
SbAsO3,Sb,As,3,3,0.76,0.58,cubic,0,3.975,3.975,3.975,90,90,90,0,-0.813,0.71,-,12.566,1.577
SbBO3,Sb,B,3,3,0.76,0.27,cubic,0,3.491,3.491,3.491,90,90,90,1.554,-1.1,1.001,-,8.51,3.328
SbCoO3,Sb,Co,3,3,0.76,0.61,cubic,0,3.734,3.734,3.734,90,90,90,0.194,-0.969,0.549,0,10.413,2.075
SbCrO3,Sb,Cr,3,3,0.76,0.62,orthorhombic,3,5.272,5.679,7.647,90,90,90,0.811,-1.891,0.139,0.6,11.448,2.906
SbCuO3,Sb,Cu,3,3,0.76,0.54,cubic,0,3.773,3.773,3.773,90,90,90,0,-0.731,0.604,-,10.74,0.258
SbFeO3,Sb,Fe,3,3,0.76,0.65,tetragonal,1,3.681,3.681,4.615,90,90,90,0.906,-1.503,0.151,0.999,12.504,1.172
SbGaO3,Sb,Ga,3,3,0.76,0.62,tetragonal,1,3.627,3.627,4.653,90,90,90,1.364,-1.712,0.129,-,12.241,2.757
SbIrO3,Sb,Ir,3,3,0.76,0.68,cubic,0,3.968,3.968,3.968,90,90,90,0,-0.531,0.779,0,12.498,-0.04
SbLiO3,Sb,Li,5,1,0.6,0.76,cubic,0,3.627,3.627,3.627,90,90,90,0,-0.675,1.28,-,9.546,-5.428
SbMnO3,Sb,Mn,3,3,0.76,0.65,orthorhombic,3,5.287,5.68,7.742,90,90,90,0,-1.647,0.208,0.8,11.624,1.398
SbMoO3,Sb,Mo,3,3,0.76,0.69,cubic,0,3.989,3.989,3.989,90,90,90,0,-1.292,0.527,0,12.693,2.864
SbNiO3,Sb,Ni,3,3,0.76,0.6,cubic,0,3.754,3.754,3.754,90,90,90,0,-0.87,0.653,0.201,10.581,0.167
SbPdO3,Sb,Pd,3,3,0.76,0.76,cubic,0,3.979,3.979,3.979,90,90,90,0,-0.512,0.739,-,12.598,0.053
SbRhO3,Sb,Rh,3,3,0.76,0.67,cubic,0,3.942,3.942,3.942,90,90,90,0,-0.668,0.634,0,12.247,0.326
SbRuO3,Sb,Ru,3,3,0.76,0.68,cubic,0,3.941,3.941,3.941,90,90,90,0,-0.758,0.613,0.188,12.238,1.154
Sb2O3,Sb,Sb,3,3,0.76,0.76,cubic,0,4.142,4.142,4.142,90,90,90,0,-0.897,0.682,-,14.211,0.87
SbScO3,Sb,Sc,3,3,0.76,0.75,cubic,0,4.024,4.024,4.024,90,90,90,0.834,-2.084,0.61,0,13.031,0.35
SbTiO3,Sb,Ti,3,3,0.76,0.67,tetragonal,1,3.892,3.892,4.207,90,90,90,0,-2.177,0.295,0.145,12.745,3.841
SbVO3,Sb,V,3,3,0.76,0.64,orthorhombic,3,5.306,5.791,7.681,90,90,90,0.606,-1.993,0.112,0.4,11.801,3.131
SbWO3,Sb,W,3,3,0.76,0.66,cubic,0,3.997,3.997,3.997,90,90,90,0,-1.317,0.64,-0.002,12.767,2.948
ScAlO3,Sc,Al,3,3,0.87,0.54,orthorhombic,3,4.939,5.23,7.218,90,90,90,5.018,-3.508,0.028,0,9.322,5.068
ScAsO3,Sc,As,3,3,0.87,0.58,cubic,0,3.898,3.898,3.898,90,90,90,0,-1.591,1.035,0.12,11.845,1.189
ScBO3,Sc,B,3,3,0.87,0.27,cubic,0,3.347,3.347,3.347,90,90,90,2.021,-2.326,0.947,0,7.496,4.771
ScBiO3,Sc,Bi,1,5,0.87,0.76,cubic,0,4.312,4.312,4.312,90,90,90,0,-1.237,1.404,0.159,16.035,0.324
ScCoO3,Sc,Co,3,3,0.87,0.61,cubic,0,3.627,3.627,3.627,90,90,90,0.849,-1.94,0.591,0,9.546,1.089
ScCrO3,Sc,Cr,1,5,0.87,0.49,cubic,0,3.768,3.768,3.768,90,90,90,0.436,-2.486,0.658,0.6,10.702,2.781
ScCuO3,Sc,Cu,3,3,0.87,0.54,cubic,0,3.667,3.667,3.667,90,90,90,0,-1.671,0.566,-0.001,9.858,-0.392
ScIrO3,Sc,Ir,1,5,0.87,0.57,cubic,0,3.903,3.903,3.903,90,90,90,0,-1.303,1.08,0,11.895,-1.398
ScMoO3,Sc,Mo,1,5,0.87,0.61,cubic,0,3.914,3.914,3.914,90,90,90,0,-2.047,0.826,0.17,11.995,1.521
ScNbO3,Sc,Nb,1,5,0.87,0.64,cubic,0,3.995,3.995,3.995,90,90,90,0,-2.405,0.753,0.161,12.75,3.214
ScNiO3,Sc,Ni,3,3,0.87,0.6,cubic,0,3.644,3.644,3.644,90,90,90,0,-1.827,0.573,0.2,9.674,0.13
ScReO3,Sc,Re,1,5,0.87,0.58,cubic,0,3.903,3.903,3.903,90,90,90,0,-1.683,0.989,0.205,11.894,0.038
ScRuO3,Sc,Ru,1,5,0.87,0.57,cubic,0,3.868,3.868,3.868,90,90,90,0,-1.563,0.911,0.161,11.575,-0.061
ScSbO3,Sc,Sb,1,5,0.87,0.6,cubic,0,4.118,4.118,4.118,90,90,90,0,-1.515,1.178,0.2,13.968,1.271
ScSiO3,Sc,Si,2,4,0.87,0.4,cubic,0,3.547,3.547,3.547,90,90,90,0,-2.601,0.708,0.071,8.923,4.692
ScTaO3,Sc,Ta,1,5,0.87,0.64,cubic,0,3.972,3.972,3.972,90,90,90,0,-2.534,0.728,0.197,12.534,3.492
ScUO3,Sc,U,1,5,0.87,0.76,cubic,0,4.345,4.345,4.345,90,90,90,0,-2.48,1.142,0.579,16.403,3.072
ScVO3,Sc,V,1,5,0.87,0.54,cubic,0,3.782,3.782,3.782,90,90,90,0,-2.506,0.713,0.401,10.816,2.974
ScWO3,Sc,W,1,5,0.87,0.62,cubic,0,3.924,3.924,3.924,90,90,90,0,-2.028,0.855,0.19,12.084,1.42
SiBO3,Si,B,3,3,0.4,0.27,cubic,0,3.304,3.304,3.304,90,90,90,0,-0.825,1.906,-,7.213,0.506
SiCoO3,Si,Co,2,4,0.4,0.53,cubic,0,3.665,3.665,3.665,90,90,90,0,-0.536,1.832,0.356,9.846,-1.423
SiCrO3,Si,Cr,2,4,0.4,0.55,cubic,0,3.759,3.759,3.759,90,90,90,0,-1.231,1.486,0.4,10.623,-0.629
SiFeO3,Si,Fe,2,4,0.4,0.59,cubic,0,3.751,3.751,3.751,90,90,90,0,-0.833,1.668,0.804,10.552,-1.814
SiGeO3,Si,Ge,2,4,0.4,0.53,cubic,0,3.724,3.724,3.724,90,90,90,1.221,-1.121,1.29,-,10.332,3.399
SiIrO3,Si,Ir,2,4,0.4,0.63,cubic,0,3.9,3.9,3.9,90,90,90,0,-0.35,1.813,0.007,11.865,0.304
SiMnO3,Si,Mn,2,4,0.4,0.53,cubic,0,3.739,3.739,3.739,90,90,90,0,-1.04,1.674,0.602,10.455,-1.849
SiMoO3,Si,Mo,2,4,0.4,0.65,cubic,0,3.922,3.922,3.922,90,90,90,0,-1.243,1.248,0.001,12.067,3.585
SiNiO3,Si,Ni,2,4,0.4,0.48,cubic,0,3.639,3.639,3.639,90,90,90,0,-0.37,1.994,0.157,9.641,-4.359
SiPbO3,Si,Pb,2,4,0.4,0.78,cubic,0,4.182,4.182,4.182,90,90,90,0,-0.367,2.036,-,14.624,-3.953
SiPdO3,Si,Pd,2,4,0.4,0.62,cubic,0,3.906,3.906,3.906,90,90,90,0,-0.132,1.972,-,11.917,-1.586
SiRhO3,Si,Rh,2,4,0.4,0.6,cubic,0,3.878,3.878,3.878,90,90,90,0,-0.39,1.765,0.012,11.664,0.272
SiRuO3,Si,Ru,2,4,0.4,0.62,cubic,0,3.878,3.878,3.878,90,90,90,0,-0.598,1.626,0.307,11.668,1.553
SiSbO3,Si,Sb,2,4,0.4,0.68,cubic,0,4.046,4.046,4.046,90,90,90,0,-0.814,1.556,-,13.242,2.04
SiSnO3,Si,Sn,2,4,0.4,0.69,cubic,0,4.01,4.01,4.01,90,90,90,1.755,-1.023,1.436,-,12.901,2.712
SiTeO3,Si,Te,2,4,0.4,0.97,cubic,0,4.144,4.144,4.144,90,90,90,0,-0.499,1.736,-,14.234,1.304
SiVO3,Si,V,2,4,0.4,0.58,cubic,0,3.784,3.784,3.784,90,90,90,0,-1.492,1.282,0.2,10.835,0.215
SiWO3,Si,W,2,4,0.4,0.66,cubic,0,3.928,3.928,3.928,90,90,90,0,-1.299,1.198,0.001,12.122,3.555
SmAlO3,Sm,Al,3,3,1.24,0.54,orthorhombic,3,5.288,5.305,7.481,90,90,90,4.871,-3.537,-0.054,0,10.494,6.413
SmAsO3,Sm,As,3,3,1.24,0.58,cubic,0,4.015,4.015,4.015,90,90,90,0,-2.008,0.639,0,12.948,2.469
SmCeO3,Sm,Ce,2,4,1.32,0.87,cubic,0,4.543,4.543,4.543,90,90,90,0.779,-2.444,1.167,0,18.747,-1.929
SmCoO3,Sm,Co,3,3,1.24,0.61,orthorhombic,3,5.289,5.546,7.61,90,90,90,0,-2.487,-0.009,0.4,11.162,2.931
SmCrO3,Sm,Cr,3,3,1.24,0.62,orthorhombic,3,5.364,5.595,7.691,90,90,90,2.441,-3.151,-0.06,0.6,11.543,4.538
SmCuO3,Sm,Cu,3,3,1.24,0.54,orthorhombic,3,5.277,5.749,7.409,90,90,90,0,-2.218,0.047,0,11.236,1.081
SmFeO3,Sm,Fe,3,3,1.24,0.65,orthorhombic,3,5.383,5.638,7.71,90,90,90,1.151,-2.734,-0.03,1,11.7,3.624
SmGaO3,Sm,Ga,3,3,1.24,0.62,orthorhombic,3,5.362,5.586,7.676,90,90,90,4.124,-2.921,0.006,0,11.496,4.735
SmGeO3,Sm,Ge,2,4,1.32,0.53,orthorhombic,3,5.442,5.821,7.874,90,90,90,0,-2.531,0.17,0,12.471,3.064
SmHfO3,Sm,Hf,2,4,1.32,0.71,orthorhombic,3,5.55,6.089,7.682,90,90,90,0,-3.408,0.171,0.005,12.98,4.839
SmIrO3,Sm,Ir,2,4,1.32,0.63,cubic,0,3.969,3.969,3.969,90,90,90,0,-1.741,0.589,0,12.509,-0.334
SmMnO3,Sm,Mn,2,4,1.32,0.53,orthorhombic,3,5.376,5.749,7.599,90,90,90,0,-2.913,0.001,0.8,11.743,3.73
SmMoO3,Sm,Mo,2,4,1.32,0.65,orthorhombic,3,5.47,5.883,7.887,90,90,90,0,-2.637,0.204,0.591,12.69,2.336
SmNbO3,Sm,Nb,2,4,1.32,0.68,orthorhombic,3,5.473,5.996,7.763,90,90,90,0,-2.95,0.207,0.001,12.738,3.647
SmNiO3,Sm,Ni,3,3,1.24,0.6,orthorhombic,3,5.28,5.477,7.544,90,90,90,0,-2.356,-0.009,0.2,10.909,1.31
SmPbO3,Sm,Pb,2,4,1.32,0.78,cubic,0,4.21,4.21,4.21,90,90,90,0,-1.583,0.884,0,14.924,-
SmPdO3,Sm,Pd,2,4,1.32,0.62,orthorhombic,3,5.466,5.931,7.642,90,90,90,0,-2.166,-0.056,0.002,12.389,0.347
SmPrO3,Sm,Pr,2,4,1.32,0.85,cubic,0,4.499,4.499,4.499,90,90,90,0.993,-2.54,1.099,0,18.21,2.566
SmReO3,Sm,Re,2,4,1.32,0.63,cubic,0,3.961,3.961,3.961,90,90,90,0,-2.001,0.686,0.165,12.43,0.946
SmRhO3,Sm,Rh,2,4,1.32,0.6,orthorhombic,3,5.337,5.818,7.72,90,90,90,0.783,-2.37,-0.053,0,11.987,0.38
SmRuO3,Sm,Ru,2,4,1.32,0.62,orthorhombic,3,5.295,5.864,7.702,90,90,90,0,-2.371,0.049,0.199,11.958,1.228
SmSbO3,Sm,Sb,3,3,1.24,0.76,cubic,0,4.223,4.223,4.223,90,90,90,0,-1.855,0.86,0,15.066,1.586
SmSiO3,Sm,Si,3,3,1.24,0.4,cubic,0,3.732,3.732,3.732,90,90,90,0,-2.675,0.558,0,10.394,4.676
SmSnO3,Sm,Sn,2,4,1.32,0.69,cubic,0,4.123,4.123,4.123,90,90,90,0,-2.114,0.694,0,14.015,2.518
SmTaO3,Sm,Ta,2,4,1.32,0.68,cubic,0,4.015,4.015,4.015,90,90,90,0,-2.778,0.505,0.002,12.941,3.702
SmTbO3,Sm,Tb,2,4,1.32,0.76,cubic,0,4.3,4.3,4.3,90,90,90,1.608,-2.842,0.789,0,15.898,2.172
SmTeO3,Sm,Te,2,4,1.32,0.97,cubic,0,4.246,4.246,4.246,90,90,90,0,-1.542,0.955,0,15.305,1.216
SmThO3,Sm,Th,2,4,1.32,0.94,cubic,0,4.555,4.555,4.555,90,90,90,0,-2.877,0.899,0.084,18.905,2.673
SmTiO3,Sm,Ti,2,4,1.32,0.61,orthorhombic,3,5.398,5.7,7.738,90,90,90,0,-3.421,-0.009,0.2,11.906,5.05
SmUO3,Sm,U,2,4,1.32,0.89,cubic,0,4.845,4.845,4.845,90,90,90,0,-2.301,1.269,0.581,22.751,-1.117
SmVO3,Sm,V,2,4,1.32,0.58,orthorhombic,3,5.398,5.695,7.718,90,90,90,1.105,-3.223,-0.057,0.4,11.864,4.238
SmWO3,Sm,W,2,4,1.32,0.66,cubic,0,3.975,3.975,3.975,90,90,90,0,-2.296,0.534,0.003,12.562,1.933
SmZrO3,Sm,Zr,2,4,1.32,0.72,orthorhombic,3,5.599,6.132,7.743,90,90,90,0,-3.353,0.157,0.051,13.292,4.476
SnAgO3,Sn,Ag,3,3,0.81,0.75,cubic,0,4.045,4.045,4.045,90,90,90,0,-0.343,0.935,-,13.233,-2.457
SnAlO3,Sn,Al,3,3,0.81,0.54,orthorhombic,3,5.201,5.364,7.416,90,90,90,0,-2.269,0.257,-,10.344,1.659
SnAsO3,Sn,As,3,3,0.81,0.58,tetragonal,1,3.867,3.867,4.51,90,90,90,0,-1.321,0.333,-,13.489,1.871
SnBO3,Sn,B,4,2,0.81,0.27,cubic,0,3.465,3.465,3.465,90,90,90,0,-1.092,1.125,-,8.323,1.685
SnBeO3,Sn,Be,4,2,0.81,0.45,cubic,0,3.51,3.51,3.51,90,90,90,0,-1.421,0.937,-,8.651,-2.775
SnBiO3,Sn,Bi,3,3,0.81,1.03,cubic,0,4.316,4.316,4.316,90,90,90,0,-1.046,0.64,-,16.076,1.066
SnCeO3,Sn,Ce,2,4,0.81,0.87,cubic,0,4.522,4.522,4.522,90,90,90,0,-1.64,1.013,-0.2,18.499,-3.618
SnCoO3,Sn,Co,2,4,0.81,0.53,cubic,0,3.728,3.728,3.728,90,90,90,0,-1.019,0.651,0.034,10.361,-
SnCrO3,Sn,Cr,2,4,0.81,0.55,orthorhombic,3,5.295,5.543,7.684,90,90,90,0,-1.939,0.195,0.623,11.276,1.68
SnCuO3,Sn,Cu,3,3,0.81,0.54,cubic,0,3.769,3.769,3.769,90,90,90,0,-0.744,0.751,-,10.708,-2.239
SnDyO3,Sn,Dy,3,3,0.81,0.91,cubic,0,4.319,4.319,4.319,90,90,90,0,-1.96,0.893,-0.201,16.116,-2.247
SnErO3,Sn,Er,3,3,0.81,0.89,cubic,0,4.283,4.283,4.283,90,90,90,0,-2.012,0.851,-0.198,15.719,-1.922
SnEuO3,Sn,Eu,3,3,0.81,0.95,orthorhombic,3,5.707,5.783,8.961,90,90,90,0.88,-2.389,0.312,0,14.788,-5.394
SnFeO3,Sn,Fe,2,4,0.81,0.59,rhombohedral,2,5.396,5.396,5.396,61.1,61.1,61.1,0,-1.496,0.284,0.846,11.389,0.792
SnGaO3,Sn,Ga,3,3,0.81,0.62,cubic,0,3.835,3.835,3.835,90,90,90,0,-1.374,0.57,-,11.282,0.236
SnGdO3,Sn,Gd,3,3,0.81,0.94,cubic,0,4.354,4.354,4.354,90,90,90,0,-1.899,0.94,-0.195,16.51,-2.574
SnGeO3,Sn,Ge,2,4,0.81,0.53,orthorhombic,3,5.399,5.418,7.788,90,90,90,0,-1.495,0.274,-,11.391,3.69
SnHfO3,Sn,Hf,2,4,0.81,0.71,orthorhombic,3,5.797,5.821,8.214,90,90,90,2.398,-2.783,0.135,0,13.857,5.278