Chemical formula,A,B,Valence A,Valence B,Radius A [ang],Radius B [ang],Crystal Type,Crystal Type,a [ang],b [ang],c [ang],alpha [deg],beta [deg],gamma [deg],Band gap [eV],Formation energy [eV/atom],Stability [eV/atom],Magnetic moment [mu_B],Volume per atom [A^3/atom],Vacancy energy [eV/O atom]
LuTaO3,Lu,Ta,3,3,1.03,0.72,cubic,0,3.998,3.998,3.998,90,90,90,0,-2.552,0.807,0,12.78,2.596
LuTbO3,Lu,Tb,3,3,1.03,0.92,cubic,0,4.276,4.276,4.276,90,90,90,0.593,-2.565,1.196,0,15.633,-0.812
LuTiO3,Lu,Ti,3,3,1.03,0.67,orthorhombic,3,5.222,5.601,7.553,90,90,90,0,-3.482,0.06,0.2,11.046,4.341
LuTlO3,Lu,Tl,3,3,1.03,0.89,orthorhombic,3,5.447,5.792,8.636,90,90,90,1.053,-2.3,0.149,0,13.621,0.315
LuTmO3,Lu,Tm,3,3,1.03,0.88,cubic,0,4.177,4.177,4.177,90,90,90,1.025,-2.919,1.027,0,14.578,0.782
LuUO3,Lu,U,3,3,1.03,1.03,cubic,0,4.395,4.395,4.395,90,90,90,0,-2.473,1.227,0.451,16.973,1.311
LuVO3,Lu,V,3,3,1.03,0.64,cubic,0,3.827,3.827,3.827,90,90,90,0,-2.743,0.553,0.4,11.209,3.721
LuWO3,Lu,W,3,3,1.03,0.66,cubic,0,3.951,3.951,3.951,90,90,90,0,-2.068,0.96,0,12.337,0.59
LuYO3,Lu,Y,3,3,1.03,0.9,cubic,0,4.246,4.246,4.246,90,90,90,0.868,-2.729,1.156,0,15.313,-0.404
LuYbO3,Lu,Yb,3,3,1.03,0.87,cubic,0,4.077,4.077,4.077,90,90,90,0,-2.241,1.143,-0.159,13.552,-2.456
LuZrO3,Lu,Zr,3,3,1.03,0.72,cubic,0,4.121,4.121,4.121,90,90,90,0,-2.834,0.791,0,13.993,3.882
MgCeO3,Mg,Ce,2,4,0.89,0.87,orthorhombic,3,5.674,5.946,8.548,90,90,90,0.613,-2.711,0.236,0.2,14.417,-3.54
MgCoO3,Mg,Co,2,4,0.89,0.53,cubic,0,3.654,3.654,3.654,90,90,90,0,-1.244,0.573,0.294,9.757,-
MgCrO3,Mg,Cr,2,4,0.89,0.55,cubic,0,3.731,3.731,3.731,90,90,90,0,-1.937,0.564,0.399,10.386,0.439
MgFeO3,Mg,Fe,2,4,0.89,0.59,orthorhombic,3,4.977,5.215,7.262,90,90,90,0,-1.954,0.1,0.799,9.425,0.07
MgGeO3,Mg,Ge,2,4,0.89,0.53,cubic,0,3.688,3.688,3.688,90,90,90,1.576,-1.882,0.522,-,10.036,3.024
MgHfO3,Mg,Hf,2,4,0.89,0.71,cubic,0,4.044,4.044,4.044,90,90,90,1.009,-2.878,0.604,0,13.227,3.554
MgIrO3,Mg,Ir,2,4,0.89,0.63,cubic,0,3.898,3.898,3.898,90,90,90,0,-1.017,0.8,0.193,11.844,-0.164
MgMnO3,Mg,Mn,2,4,0.89,0.53,orthorhombic,3,4.951,5.183,7.208,90,90,90,0.705,-2.219,0.077,0.6,9.249,0.004
MgMoO3,Mg,Mo,2,4,0.89,0.65,cubic,0,3.912,3.912,3.912,90,90,90,0,-1.924,0.597,0.001,11.972,3.429
MgNbO3,Mg,Nb,2,4,0.89,0.68,cubic,0,3.997,3.997,3.997,90,90,90,0,-2.323,0.529,0,12.767,4.379
MgNiO3,Mg,Ni,2,4,0.89,0.48,cubic,0,3.656,3.656,3.656,90,90,90,0,-1.102,0.59,0.001,9.771,-1.539
MgPbO3,Mg,Pb,2,4,0.89,0.78,cubic,0,4.171,4.171,4.171,90,90,90,0,-1.047,0.8,-,14.514,0.44
MgPdO3,Mg,Pd,2,4,0.89,0.62,cubic,0,3.896,3.896,3.896,90,90,90,0,-0.798,0.658,-,11.828,-1.351
MgPrO3,Mg,Pr,2,4,0.89,0.85,orthorhombic,3,5.647,5.893,8.5,90,90,90,0.821,-2.739,0.236,0.2,14.145,-3.347
MgReO3,Mg,Re,2,4,0.89,0.63,cubic,0,3.898,3.898,3.898,90,90,90,0,-1.558,0.645,0,11.844,1.669
MgRhO3,Mg,Rh,2,4,0.89,0.6,cubic,0,3.875,3.875,3.875,90,90,90,0,-1.067,0.734,0.26,11.64,-0.243
MgRuO3,Mg,Ru,2,4,0.89,0.62,cubic,0,3.873,3.873,3.873,90,90,90,0,-1.29,0.648,0.395,11.615,1.013
MgSbO3,Mg,Sb,2,4,0.89,0.68,cubic,0,4.055,4.055,4.055,90,90,90,0,-1.478,0.742,-,13.339,1.878
MgSiO3,Mg,Si,2,4,0.89,0.4,orthorhombic,3,4.783,4.936,6.91,90,90,90,5.946,-2.869,0.208,-,8.157,5.267
MgSnO3,Mg,Sn,2,4,0.89,0.69,cubic,0,3.996,3.996,3.996,90,90,90,1.143,-1.725,0.625,-,12.762,2.673
MgTaO3,Mg,Ta,2,4,0.89,0.68,cubic,0,3.977,3.977,3.977,90,90,90,0,-2.49,0.505,0,12.58,4.98
MgTbO3,Mg,Tb,2,4,0.89,0.76,cubic,0,4.282,4.282,4.282,90,90,90,0,-1.874,1.094,0.2,15.697,-2.742
MgTeO3,Mg,Te,2,4,0.89,0.97,cubic,0,4.152,4.152,4.152,90,90,90,0,-1.178,0.833,-,14.315,1.481
MgThO3,Mg,Th,2,4,0.89,0.94,cubic,0,4.537,4.537,4.537,90,90,90,0,-2.537,1.184,-0.001,18.682,2.296
MgTiO3,Mg,Ti,2,4,0.89,0.61,orthorhombic,3,5.044,5.28,7.396,90,90,90,2.296,-3.094,0.094,0,9.849,3.878
MgUO3,Mg,U,2,4,0.89,0.89,orthorhombic,3,5.635,5.645,8.377,90,90,90,2.986,-3.256,0.214,0.4,13.324,3.749
MgVO3,Mg,V,2,4,0.89,0.58,cubic,0,3.752,3.752,3.752,90,90,90,0,-2.236,0.501,0.201,10.566,2.49
MgWO3,Mg,W,2,4,0.89,0.66,cubic,0,3.924,3.924,3.924,90,90,90,0,-1.951,0.604,0.001,12.082,3.564
MgZrO3,Mg,Zr,2,4,0.89,0.72,cubic,0,4.103,4.103,4.103,90,90,90,0.843,-2.676,0.682,0,13.812,2.605
MnAlO3,Mn,Al,3,3,0.65,0.54,orthorhombic,3,4.793,5.08,7.347,90,90,90,0,-2.509,0.132,0.8,8.943,-0.538
MnAsO3,Mn,As,3,3,0.65,0.58,orthorhombic,3,5.204,5.403,7.562,90,90,90,0,-1.546,0.218,0.982,10.631,1.474
MnBO3,Mn,B,3,3,0.65,0.27,cubic,0,3.362,3.362,3.362,90,90,90,0,-1.274,1.047,0.8,7.598,-1.322
MnBiO3,Mn,Bi,1,5,0.96,0.76,orthorhombic,3,5.652,5.73,8.23,90,90,90,0,-1.552,0.199,0.897,13.326,0.414
MnCeO3,Mn,Ce,2,4,0.96,0.87,orthorhombic,3,5.784,5.808,8.475,90,90,90,0.315,-2.529,0.319,0.8,14.238,-3.48
MnCoO3,Mn,Co,2,4,0.96,0.53,cubic,0,3.686,3.686,3.686,90,90,90,0,-1.044,0.605,0.688,10.015,-0.239
MnCrO3,Mn,Cr,2,4,0.96,0.55,cubic,0,3.751,3.751,3.751,90,90,90,0,-1.739,0.511,1.4,10.557,0.722
MnCuO3,Mn,Cu,3,3,0.65,0.54,cubic,0,3.696,3.696,3.696,90,90,90,0,-0.764,0.628,0.883,10.094,-1.889
MnFeO3,Mn,Fe,2,4,0.96,0.59,orthorhombic,3,4.934,5.243,7.676,90,90,90,0,-1.693,0.14,1.8,9.927,0.308
MnGeO3,Mn,Ge,2,4,0.96,0.53,orthorhombic,3,5.09,5.237,7.334,90,90,90,1.382,-1.941,0.085,1,9.776,3.174
MnHfO3,Mn,Hf,2,4,0.96,0.71,orthorhombic,3,5.331,5.551,7.809,90,90,90,3.348,-3.093,0.026,1,11.554,3.919
MnIrO3,Mn,Ir,2,4,0.96,0.63,cubic,0,3.905,3.905,3.905,90,90,90,0,-0.83,0.669,1.207,11.909,0.114
MnMoO3,Mn,Mo,2,4,0.96,0.65,orthorhombic,3,5.288,5.43,7.637,90,90,90,0,-1.971,0.193,1.167,10.964,3.603
MnNbO3,Mn,Nb,2,4,0.96,0.68,orthorhombic,3,5.311,5.556,7.705,90,90,90,0,-2.381,0.127,1.043,11.366,4.424
MnNiO3,Mn,Ni,2,4,0.96,0.48,cubic,0,3.678,3.678,3.678,90,90,90,0,-0.893,0.703,1,9.953,-1.57
MnPbO3,Mn,Pb,2,4,0.96,0.78,orthorhombic,3,5.532,5.661,8.101,90,90,90,0,-1.476,0.15,0.998,12.685,0.121
MnPdO3,Mn,Pd,2,4,0.96,0.62,cubic,0,3.907,3.907,3.907,90,90,90,0,-0.613,0.697,0.907,11.927,-1.086
MnPrO3,Mn,Pr,2,4,0.96,0.85,orthorhombic,3,5.744,5.779,8.396,90,90,90,0.333,-2.555,0.315,0.8,13.935,-3.338
MnReO3,Mn,Re,2,4,0.96,0.63,orthorhombic,3,5.294,5.381,7.614,90,90,90,0,-1.65,0.19,1.15,10.846,1.851
MnRhO3,Mn,Rh,2,4,0.96,0.6,cubic,0,3.885,3.885,3.885,90,90,90,0,-0.875,0.614,1.264,11.726,0.048
MnRuO3,Mn,Ru,2,4,0.96,0.62,orthorhombic,3,5.218,5.328,7.506,90,90,90,0,-1.529,0.072,0.605,10.435,1.401
MnSbO3,Mn,Sb,1,5,0.96,0.6,cubic,0,4.063,4.063,4.063,90,90,90,0,-1.301,0.554,1.055,13.412,1.874
MnSiO3,Mn,Si,2,4,0.96,0.4,orthorhombic,3,4.928,5.026,7.033,90,90,90,3.851,-2.487,0.227,1,8.709,5.482
MnSnO3,Mn,Sn,2,4,0.96,0.69,orthorhombic,3,5.368,5.544,7.823,90,90,90,0.851,-1.984,0.042,1,11.639,2.711
MnTaO3,Mn,Ta,2,4,0.96,0.68,orthorhombic,3,5.262,5.59,7.602,90,90,90,0,-2.49,0.18,0.8,11.181,4.948
MnTbO3,Mn,Tb,2,4,0.96,0.76,orthorhombic,3,5.646,5.656,7.944,90,90,90,0.245,-2.552,0.272,0.8,12.685,-2.675
MnTeO3,Mn,Te,2,4,0.96,0.97,cubic,0,4.153,4.153,4.153,90,90,90,0,-1.004,0.681,1.043,14.324,1.654
MnThO3,Mn,Th,2,4,0.96,0.94,cubic,0,4.533,4.533,4.533,90,90,90,0,-2.368,0.989,1.008,18.631,2.387
MnTiO3,Mn,Ti,2,4,0.96,0.61,orthorhombic,3,5.132,5.357,7.467,90,90,90,1.398,-2.777,0.06,1,10.264,3.891
MnUO3,Mn,U,2,4,0.96,0.89,cubic,0,4.327,4.327,4.327,90,90,90,0,-2.377,0.729,1.278,16.208,3.612
MnVO3,Mn,V,2,4,0.96,0.58,orthorhombic,3,5.132,5.275,7.438,90,90,90,0,-2.33,0.052,1.2,10.068,2.704
MnWO3,Mn,W,2,4,0.96,0.66,rhombohedral,2,5.241,5.241,5.241,63.6,63.6,63.6,0,-1.946,0.263,0.947,10.985,3.688
MnZrO3,Mn,Zr,2,4,0.96,0.72,orthorhombic,3,5.383,5.594,7.903,90,90,90,3.057,-2.943,0.052,1,11.9,2.972
MoAgO3,Mo,Ag,3,3,0.69,0.75,orthorhombic,3,5.563,5.64,8.729,90,90,90,0,-1.368,0.362,0.002,13.694,-9.289
MoAlO3,Mo,Al,3,3,0.69,0.54,cubic,0,3.646,3.646,3.646,90,90,90,0,-1.718,0.884,0.599,9.692,1.533
MoAsO3,Mo,As,3,3,0.69,0.58,cubic,0,3.881,3.881,3.881,90,90,90,0,-0.399,1.375,0.793,11.693,-0.346
MoBO3,Mo,B,3,3,0.69,0.27,cubic,0,3.395,3.395,3.395,90,90,90,0,-0.828,1.453,0.535,7.826,1.516
MoBaO3,Mo,Ba,4,2,0.65,1.35,rhombohedral,2,6.254,6.254,6.254,63.7,63.7,63.7,0.788,-2.311,0.278,0,18.697,-14.618
MoBeO3,Mo,Be,4,2,0.65,0.45,cubic,0,3.41,3.41,3.41,90,90,90,0,-1.384,1.096,0.349,7.928,-0.936
MoBiO3,Mo,Bi,3,3,0.69,1.03,cubic,0,4.245,4.245,4.245,90,90,90,0,-0.179,1.633,0.863,15.295,-6.762
MoCaO3,Mo,Ca,4,2,0.65,1,orthorhombic,3,5.553,5.802,8.206,90,90,90,0,-2.31,0.344,0.399,13.22,-10.717
MoCdO3,Mo,Cd,4,2,0.65,0.95,orthorhombic,3,5.578,5.698,8.005,90,90,90,0,-1.43,0.393,0.4,12.721,-9.669
MoCeO3,Mo,Ce,3,3,0.69,1.01,rhombohedral,2,5.754,5.754,5.754,66.2,66.2,66.2,0,-2.319,0.441,0.2,15.288,-8.761
MoCoO3,Mo,Co,3,3,0.69,0.61,cubic,0,3.658,3.658,3.658,90,90,90,0,-0.555,1.258,0.59,9.791,-0.95
MoCrO3,Mo,Cr,3,3,0.69,0.62,cubic,0,3.792,3.792,3.792,90,90,90,0,-1.128,1.082,1.2,10.906,-0.144
MoCuO3,Mo,Cu,3,3,0.69,0.54,orthorhombic,3,5.221,5.254,7.754,90,90,90,0,-1.422,0.312,0.186,10.635,-3.836
MoDyO3,Mo,Dy,4,2,0.65,1.07,cubic,0,4.27,4.27,4.27,90,90,90,0,-1.191,1.704,0.599,15.572,-5.636
MoErO3,Mo,Er,3,3,0.69,0.89,cubic,0,4.224,4.224,4.224,90,90,90,0,-1.279,1.639,0.599,15.076,-5.746
MoEuO3,Mo,Eu,3,3,0.69,0.95,orthorhombic,3,5.43,6.124,8.298,90,90,90,0,-2.442,0.373,0.188,13.797,-12.294
MoFeO3,Mo,Fe,4,2,0.65,0.78,cubic,0,3.792,3.792,3.792,90,90,90,0,-0.677,1.263,1.6,10.904,-2.265
MoGaO3,Mo,Ga,3,3,0.69,0.62,cubic,0,3.768,3.768,3.768,90,90,90,0,-0.918,1.105,0.6,10.7,-1.156
MoGdO3,Mo,Gd,3,3,0.69,0.94,cubic,0,4.32,4.32,4.32,90,90,90,0,-1.095,1.785,0.604,16.124,-6.964
MoHfO3,Mo,Hf,3,3,0.69,0.71,cubic,0,4.064,4.064,4.064,90,90,90,0,-1.894,1.056,0.8,13.424,0.47
MoHgO3,Mo,Hg,4,2,0.65,1.02,cubic,0,4.146,4.146,4.146,90,90,90,0,0.539,2.269,0.695,14.256,-10.695
MoHoO3,Mo,Ho,4,2,0.65,0.9,cubic,0,4.247,4.247,4.247,90,90,90,0,-1.236,1.67,0.598,15.318,-6.047
MoInO3,Mo,In,3,3,0.69,0.8,rhombohedral,2,5.705,5.705,5.705,59.8,59.8,59.8,0,-1.338,0.57,0.582,13.082,-5.376
MoIrO3,Mo,Ir,3,3,0.69,0.68,cubic,0,3.922,3.922,3.922,90,90,90,0,-0.073,1.658,0.578,12.069,-2.497
MoLaO3,Mo,La,3,3,0.69,1.03,cubic,0,4.459,4.459,4.459,90,90,90,0,-0.886,2.005,0.6,17.735,-8.239
MoLuO3,Mo,Lu,3,3,0.69,0.86,cubic,0,4.153,4.153,4.153,90,90,90,0,-1.41,1.541,0.6,14.329,-4.815
MoMgO3,Mo,Mg,4,2,0.65,0.72,cubic,0,3.714,3.714,3.714,90,90,90,0,-1.045,1.476,0.4,10.244,-4.539
MoMnO3,Mo,Mn,3,3,0.69,0.65,cubic,0,3.792,3.792,3.792,90,90,90,0,-0.905,1.259,1.4,10.908,-2.055
Mo2O3,Mo,Mo,3,3,0.69,0.69,cubic,0,3.937,3.937,3.937,90,90,90,0,-0.959,0.98,0.861,12.207,2.276
MoNbO3,Mo,Nb,4,2,0.65,0.72,cubic,0,4.018,4.018,4.018,90,90,90,0,-1.392,0.914,0.875,12.973,4.1
MoNdO3,Mo,Nd,3,3,0.69,0.98,cubic,0,4.435,4.435,4.435,90,90,90,0,-0.868,1.955,0.583,17.452,-8.14
MoNiO3,Mo,Ni,4,2,0.65,0.69,cubic,0,3.677,3.677,3.677,90,90,90,0,-0.471,1.335,0.8,9.941,-3.207
MoPdO3,Mo,Pd,4,2,0.65,0.86,cubic,0,3.929,3.929,3.929,90,90,90,0,0.039,1.77,0.601,12.131,-5.914
MoPrO3,Mo,Pr,3,3,0.69,0.99,cubic,0,4.471,4.471,4.471,90,90,90,0,-0.812,1.973,0.603,17.869,-8.375
MoReO3,Mo,Re,4,2,0.65,0.63,cubic,0,3.914,3.914,3.914,90,90,90,0,-0.597,1.208,0.862,11.994,1.194
MoRhO3,Mo,Rh,3,3,0.69,0.67,cubic,0,3.894,3.894,3.894,90,90,90,0,-0.181,1.549,0.53,11.805,-1.347
MoRuO3,Mo,Ru,4,2,0.65,0.68,cubic,0,3.888,3.888,3.888,90,90,90,0,-0.339,1.392,0.477,11.755,0.101
MoScO3,Mo,Sc,3,3,0.69,0.75,cubic,0,3.97,3.97,3.97,90,90,90,0,-1.553,1.32,0.6,12.518,-3.025
MoSmO3,Mo,Sm,4,2,0.65,1.22,cubic,0,4.379,4.379,4.379,90,90,90,0,-0.972,1.869,0.599,16.797,-7.626
MoSrO3,Mo,Sr,4,2,0.65,1.18,rhombohedral,2,6.015,6.015,6.015,62.8,62.8,62.8,0.638,-2.31,0.326,0,16.33,-13.854
MoTaO3,Mo,Ta,4,2,0.65,0.72,cubic,0,3.996,3.996,3.996,90,90,90,0,-1.582,0.932,0.912,12.765,4.762
MoTbO3,Mo,Tb,4,2,0.65,0.92,cubic,0,4.295,4.295,4.295,90,90,90,0,-1.013,1.744,0.599,15.85,-6.658
MoTiO3,Mo,Ti,3,3,0.69,0.67,cubic,0,3.86,3.86,3.86,90,90,90,0,-1.678,0.914,0.78,11.5,1.916
MoTlO3,Mo,Tl,3,3,0.69,0.89,orthorhombic,3,5.599,6.273,10.283,90,90,90,0,-1.683,0.202,0.006,18.061,-9.227
MoTmO3,Mo,Tm,3,3,0.69,0.88,cubic,0,4.196,4.196,4.196,90,90,90,0,-1.335,1.601,0.599,14.774,-5.379
MoUO3,Mo,U,3,3,0.69,1.03,cubic,0,4.325,4.325,4.325,90,90,90,0,-1.748,1.19,1.2,16.178,0.006
MoVO3,Mo,V,3,3,0.69,0.64,cubic,0,3.8,3.8,3.8,90,90,90,0,-1.249,1.036,1.001,10.978,0.96
MoWO3,Mo,W,4,2,0.65,0.66,cubic,0,3.943,3.943,3.943,90,90,90,0,-1.019,0.938,0.883,12.261,2.596
MoYO3,Mo,Y,3,3,0.69,0.9,cubic,0,4.278,4.278,4.278,90,90,90,0,-1.168,1.735,0.6,15.662,-4.275
MoYbO3,Mo,Yb,3,3,0.69,0.87,orthorhombic,3,5.502,5.784,8.076,90,90,90,0,-2.45,0.308,0.398,12.85,-10.578
MoZnO3,Mo,Zn,4,2,0.65,0.74,cubic,0,3.783,3.783,3.783,90,90,90,0,-0.4,1.567,0.52,10.832,-5.452
MoZrO3,Mo,Zr,3,3,0.69,0.72,cubic,0,4.119,4.119,4.119,90,90,90,0,-1.702,1.124,0.8,13.977,-0.74
NaAsO3,Na,As,1,5,1.39,0.46,orthorhombic,3,5.156,5.159,7.296,90,90,90,1.08,-1.53,0.23,-,9.703,1.226
NaBiO3,Na,Bi,1,5,1.39,0.76,orthorhombic,3,5.705,5.819,8.14,90,90,90,0.736,-1.407,0.048,-,13.512,0.27
NaCrO3,Na,Cr,1,5,1.39,0.49,orthorhombic,3,5.151,5.228,7.398,90,90,90,0,-1.743,0.27,0.2,9.961,-12.261
NaIrO3,Na,Ir,1,5,1.39,0.57,orthorhombic,3,5.267,5.398,7.541,90,90,90,0,-1.266,0.066,0.013,10.72,1.523
NaMoO3,Na,Mo,1,5,1.39,0.61,cubic,0,3.886,3.886,3.886,90,90,90,0,-2.251,0.013,0,11.739,4.698
NaNbO3,Na,Nb,1,5,1.39,0.64,orthorhombic,3,5.47,5.568,7.806,90,90,90,2.204,-2.686,0.019,0,11.887,5.195
NaReO3,Na,Re,1,5,1.39,0.58,cubic,0,3.863,3.863,3.863,90,90,90,0,-1.932,0.007,-0.001,11.534,4.339
NaRuO3,Na,Ru,1,5,1.39,0.57,orthorhombic,3,5.288,5.377,7.547,90,90,90,0,-1.416,0.045,0.216,10.729,2.053
NaSbO3,Na,Sb,1,5,1.39,0.6,orthorhombic,3,5.42,5.486,7.719,90,90,90,1.647,-1.832,0.09,-,11.477,2.765
NaTaO3,Na,Ta,1,5,1.39,0.64,orthorhombic,3,5.466,5.534,7.784,90,90,90,2.851,-2.932,-0.092,0,11.773,6.194
NaUO3,Na,U,1,5,1.39,0.76,orthorhombic,3,5.726,5.947,8.252,90,90,90,3.254,-3.104,0.003,0.2,14.05,4.35
NaVO3,Na,V,1,5,1.39,0.54,tetragonal,1,3.673,3.673,3.961,90,90,90,0.38,-2.261,0.214,0,10.687,2.295
NaWO3,Na,W,1,5,1.39,0.62,cubic,0,3.893,3.893,3.893,90,90,90,0,-2.38,-0.03,0,11.801,5.438
NbAgO3,Nb,Ag,3,3,0.72,0.75,orthorhombic,3,5.571,5.888,8.565,90,90,90,1.521,-1.87,0.182,0,14.047,-8.804
NbAlO3,Nb,Al,3,3,0.72,0.54,cubic,0,3.642,3.642,3.642,90,90,90,0,-2.135,0.746,0.377,9.661,3.221
NbAsO3,Nb,As,3,3,0.72,0.58,cubic,0,3.905,3.905,3.905,90,90,90,0,-0.668,1.556,0.54,11.909,-0.092
NbBO3,Nb,B,5,1,0.74,0.27,cubic,0,3.4,3.4,3.4,90,90,90,0,-1.261,1.312,0.281,7.859,2.549
NbBeO3,Nb,Be,4,2,0.79,0.45,cubic,0,3.405,3.405,3.405,90,90,90,0,-1.967,0.851,0.017,7.899,1.975
NbBiO3,Nb,Bi,1,5,0.79,0.76,cubic,0,4.282,4.282,4.282,90,90,90,0,-0.367,1.888,0.598,15.7,-8.918
NbCeO3,Nb,Ce,3,3,0.72,1.01,cubic,0,4.509,4.509,4.509,90,90,90,0,-0.998,2.09,0.401,18.336,-9.862
NbCoO3,Nb,Co,3,3,0.72,0.61,cubic,0,3.652,3.652,3.652,90,90,90,0,-1.027,1.247,0.146,9.741,0.373
NbCrO3,Nb,Cr,3,3,0.72,0.62,orthorhombic,3,5.348,5.687,7.174,90,90,90,0,-2.265,0.223,1,10.911,0.74
NbCuO3,Nb,Cu,3,3,0.72,0.54,rhombohedral,2,5.03,5.226,5.754,77.3,109,68.7,1.077,-2.069,0.118,0,12.309,-1.211
NbDyO3,Nb,Dy,3,3,0.72,0.91,cubic,0,4.249,4.249,4.249,90,90,90,0,-1.537,1.678,0.4,15.344,-
NbErO3,Nb,Er,3,3,0.72,0.89,cubic,0,4.2,4.2,4.2,90,90,90,0,-1.634,1.598,0.4,14.812,-5.748
NbEuO3,Nb,Eu,3,3,0.72,0.95,orthorhombic,3,5.68,6.069,8.177,90,90,90,0,-2.865,0.346,-0.003,14.096,-12.689
NbFeO3,Nb,Fe,3,3,0.72,0.65,cubic,0,3.793,3.793,3.793,90,90,90,0,-1.065,1.278,1.371,10.916,-0.263
NbGaO3,Nb,Ga,3,3,0.72,0.62,orthorhombic,3,5.317,5.486,7.241,90,90,90,0,-1.916,0.429,0.4,10.56,-0.13
NbGdO3,Nb,Gd,3,3,0.72,0.94,cubic,0,4.304,4.304,4.304,90,90,90,0,-1.426,1.767,0.401,15.942,-7.275
NbGeO3,Nb,Ge,2,4,0.79,0.53,cubic,0,3.79,3.79,3.79,90,90,90,0,-1.053,1.213,0.557,10.89,1.286
NbHfO3,Nb,Hf,2,4,0.79,0.71,cubic,0,4.058,4.058,4.058,90,90,90,0,-2.125,1.041,0.6,13.363,-0.26
NbHoO3,Nb,Ho,3,3,0.72,0.9,cubic,0,4.222,4.222,4.222,90,90,90,0,-1.587,1.637,0.4,15.056,-6.107
NbInO3,Nb,In,3,3,0.72,0.8,orthorhombic,3,5.641,5.915,7.525,90,90,90,0,-1.781,0.52,0.362,12.555,-5.317
NbIrO3,Nb,Ir,2,4,0.79,0.63,cubic,0,3.915,3.915,3.915,90,90,90,0,-0.359,1.782,0.375,11.999,-3.832
NbLaO3,Nb,La,3,3,0.72,1.03,rhombohedral,2,5.843,5.843,5.843,65.4,65.4,65.4,0.398,-2.776,0.406,0,15.771,-9.466
NbLiO3,Nb,Li,5,1,0.74,0.76,orthorhombic,3,4.772,5.139,7.819,90,90,90,2.594,-2.634,0.103,0,9.588,-2.884
NbLuO3,Nb,Lu,3,3,0.72,0.86,cubic,0,4.131,4.131,4.131,90,90,90,0,-1.776,1.48,0.4,14.095,-4.611
NbMnO3,Nb,Mn,3,3,0.72,0.65,cubic,0,3.794,3.794,3.794,90,90,90,0,-1.285,1.223,1.196,10.92,-1.475
NbMoO3,Nb,Mo,2,4,0.79,0.65,cubic,0,3.929,3.929,3.929,90,90,90,0,-1.169,1.136,0.561,12.128,0.994
Nb2O3,Nb,Nb,3,3,0.72,0.72,cubic,0,4.007,4.007,4.007,90,90,90,0,-1.569,0.924,0.609,12.867,2.484
NbNdO3,Nb,Nd,3,3,0.72,0.98,cubic,0,4.433,4.433,4.433,90,90,90,0,-1.15,1.975,0.399,17.42,-9.017
NbNiO3,Nb,Ni,3,3,0.72,0.6,cubic,0,3.661,3.661,3.661,90,90,90,0,-0.956,1.307,0.56,9.814,-0.477
NbPbO3,Nb,Pb,2,4,0.79,0.78,rhombohedral,2,5.732,5.732,5.732,68.7,68.7,68.7,0,-1.811,0.489,0,15.75,-9.306
NbPdO3,Nb,Pd,2,4,0.79,0.62,cubic,0,3.926,3.926,3.926,90,90,90,0,-0.342,1.77,0.37,12.1,-1.843
NbPrO3,Nb,Pr,2,4,0.79,0.85,cubic,0,4.468,4.468,4.468,90,90,90,0,-1.079,2.028,0.401,17.844,-9.427
NbReO3,Nb,Re,2,4,0.79,0.63,cubic,0,3.915,3.915,3.915,90,90,90,0,-0.797,1.442,0.536,12.003,-0.749
NbRhO3,Nb,Rh,3,3,0.72,0.67,cubic,0,3.885,3.885,3.885,90,90,90,0,-0.531,1.607,0.331,11.728,-1.377
NbRuO3,Nb,Ru,2,4,0.79,0.62,cubic,0,3.874,3.874,3.874,90,90,90,0,-0.644,1.528,0.231,11.627,-1.403
NbSbO3,Nb,Sb,3,3,0.72,0.76,cubic,0,4.093,4.093,4.093,90,90,90,0,-0.672,1.584,0.647,13.717,0.34
NbScO3,Nb,Sc,3,3,0.72,0.75,cubic,0,3.956,3.956,3.956,90,90,90,0,-1.948,1.21,0.4,12.386,-2.429
NbSiO3,Nb,Si,2,4,0.79,0.4,cubic,0,3.607,3.607,3.607,90,90,90,0,-1.605,1.101,0.561,9.385,2.974
NbSmO3,Nb,Sm,3,3,0.72,0.96,cubic,0,4.369,4.369,4.369,90,90,90,0,-1.28,1.877,0.399,16.675,-8.22
NbSnO3,Nb,Sn,2,4,0.79,0.69,orthorhombic,3,5.735,6.622,6.811,90,90,90,0,-1.961,0.355,0,12.934,1.467
NbTaO3,Nb,Ta,2,4,0.79,0.68,cubic,0,3.989,3.989,3.989,90,90,90,0,-1.727,0.895,0.643,12.692,2.888
NbTbO3,Nb,Tb,2,4,0.79,0.76,cubic,0,4.276,4.276,4.276,90,90,90,0,-1.352,1.721,0.401,15.634,-6.862
NbTeO3,Nb,Te,2,4,0.79,0.97,cubic,0,4.173,4.173,4.173,90,90,90,0,-0.39,1.791,0.622,14.536,-3.04
NbThO3,Nb,Th,2,4,0.79,0.94,cubic,0,4.534,4.534,4.534,90,90,90,0,-1.781,1.623,0.6,18.639,-4.59
NbTiO3,Nb,Ti,2,4,0.79,0.61,cubic,0,3.848,3.848,3.848,90,90,90,0,-1.98,0.877,0.526,11.393,1.931
NbTlO3,Nb,Tl,3,3,0.72,0.89,rhombohedral,2,5.662,5.662,5.662,70.2,70.2,70.2,0.293,-1.642,0.646,0,15.555,-9.673
NbTmO3,Nb,Tm,3,3,0.72,0.88,cubic,0,4.173,4.173,4.173,90,90,90,0,-1.694,1.553,0.4,14.535,-5.3
NbUO3,Nb,U,2,4,0.79,0.89,cubic,0,4.324,4.324,4.324,90,90,90,0,-1.791,1.362,1,16.166,3.006
NbVO3,Nb,V,2,4,0.79,0.58,cubic,0,3.807,3.807,3.807,90,90,90,0,-1.581,0.981,0.8,11.034,1.403
NbWO3,Nb,W,2,4,0.79,0.66,cubic,0,3.938,3.938,3.938,90,90,90,0,-1.186,1.123,0.609,12.214,1.156
NbYO3,Nb,Y,3,3,0.72,0.9,cubic,0,4.249,4.249,4.249,90,90,90,0,-1.512,1.68,0.399,15.346,-6.49
NbYbO3,Nb,Yb,3,3,0.72,0.87,orthorhombic,3,5.65,5.796,7.855,90,90,90,0,-2.874,0.283,0.197,12.862,-10.296
NbZrO3,Nb,Zr,2,4,0.79,0.72,cubic,0,4.112,4.112,4.112,90,90,90,0,-1.931,1.11,0.6,13.905,-1.584
NdAgO3,Nd,Ag,3,3,1.27,0.75,orthorhombic,3,5.569,5.992,7.969,90,90,90,0,-1.903,0.076,0,13.295,0.039
NdAlO3,Nd,Al,3,3,1.27,0.54,rhombohedral,2,5.297,5.297,5.297,60.6,60.6,60.6,4.598,-3.513,-0.03,0,10.645,6.454
NdAsO3,Nd,As,3,3,1.27,0.58,cubic,0,4.033,4.033,4.033,90,90,90,0,-2.055,0.563,0,13.12,2.687
NdBiO3,Nd,Bi,3,3,1.27,1.03,cubic,0,4.364,4.364,4.364,90,90,90,0,-1.711,0.836,0,16.618,1.33
NdCeO3,Nd,Ce,2,4,1.35,0.87,cubic,0,4.549,4.549,4.549,90,90,90,0.73,-2.517,1.054,0,18.828,2.475
NdCoO3,Nd,Co,3,3,1.27,0.61,orthorhombic,3,5.348,5.485,7.671,90,90,90,0,-2.456,0.002,0.4,11.251,3.124
NdCrO3,Nd,Cr,3,3,1.27,0.62,orthorhombic,3,5.426,5.602,7.748,90,90,90,2.29,-3.122,-0.071,0.6,11.777,4.678
NdCuO3,Nd,Cu,3,3,1.27,0.54,orthorhombic,3,5.373,5.466,7.627,90,90,90,0,-2.185,0.074,0,11.2,1.235
NdDyO3,Nd,Dy,3,3,1.27,0.91,cubic,0,4.285,4.285,4.285,90,90,90,1.704,-3.089,0.646,0,15.73,4.401
NdErO3,Nd,Er,3,3,1.27,0.89,cubic,0,4.24,4.24,4.24,90,90,90,1.892,-3.182,0.576,0,15.243,4.639
NdEuO3,Nd,Eu,3,3,1.27,0.95,cubic,0,4.279,4.279,4.279,90,90,90,0,-2.325,0.907,0.131,15.669,-1.378