Chemical formula,A,B,Valence A,Valence B,Radius A [ang],Radius B [ang],Crystal Type,Crystal Type,a [ang],b [ang],c [ang],alpha [deg],beta [deg],gamma [deg],Band gap [eV],Formation energy [eV/atom],Stability [eV/atom],Magnetic moment [mu_B],Volume per atom [A^3/atom],Vacancy energy [eV/O atom]
NdFeO3,Nd,Fe,3,3,1.27,0.65,orthorhombic,3,5.431,5.648,7.769,90,90,90,1.081,-2.706,-0.036,1,11.914,3.83
NdGaO3,Nd,Ga,3,3,1.27,0.62,orthorhombic,3,5.426,5.556,7.738,90,90,90,3.895,-2.891,0.001,0,11.664,4.861
NdGdO3,Nd,Gd,3,3,1.27,0.94,cubic,0,4.335,4.335,4.335,90,90,90,1.412,-2.98,0.726,0,16.298,4.071
NdGeO3,Nd,Ge,2,4,1.35,0.53,orthorhombic,3,5.5,5.835,7.935,90,90,90,0,-2.51,0.208,0,12.733,3.182
NdHfO3,Nd,Hf,2,4,1.35,0.71,orthorhombic,3,5.628,5.94,7.996,90,90,90,0,-3.386,0.152,0.009,13.366,5.015
NdHoO3,Nd,Ho,3,3,1.27,0.9,cubic,0,4.262,4.262,4.262,90,90,90,1.702,-3.137,0.61,0,15.48,4.513
NdInO3,Nd,In,3,3,1.27,0.8,orthorhombic,3,5.643,5.947,8.183,90,90,90,2.935,-2.72,0.013,0,13.73,3.394
NdIrO3,Nd,Ir,2,4,1.35,0.63,orthorhombic,3,5.368,5.918,7.797,90,90,90,0.905,-2.202,0.087,0,12.385,-0.008
NdLaO3,Nd,La,3,3,1.27,1.03,cubic,0,4.528,4.528,4.528,90,90,90,0.693,-2.638,1.028,0,18.563,2.384
NdLuO3,Nd,Lu,3,3,1.27,0.86,orthorhombic,3,5.699,5.95,8.258,90,90,90,5.041,-3.769,0.022,0,14.002,4.963
NdMnO3,Nd,Mn,3,3,1.27,0.65,orthorhombic,3,5.428,5.715,7.716,90,90,90,0,-2.885,0.001,0.8,11.967,3.843
NdMoO3,Nd,Mo,2,4,1.35,0.65,orthorhombic,3,5.511,5.905,7.95,90,90,90,0,-2.612,0.212,0.575,12.936,2.722
NdNbO3,Nd,Nb,2,4,1.35,0.68,orthorhombic,3,5.513,6.022,7.845,90,90,90,0,-2.928,0.197,0,13.023,3.94
Nd2O3,Nd,Nd,3,3,1.27,0.98,cubic,0,4.467,4.467,4.467,90,90,90,0.935,-2.692,0.928,0,17.831,3.107
NdNiO3,Nd,Ni,3,3,1.27,0.6,orthorhombic,3,5.37,5.42,7.62,90,90,90,0,-2.328,0.042,0.2,11.089,1.425
NdPbO3,Nd,Pb,2,4,1.35,0.78,cubic,0,4.187,4.187,4.187,90,90,90,0,-1.614,0.816,0,14.677,-
NdPdO3,Nd,Pd,2,4,1.35,0.62,orthorhombic,3,5.517,5.951,7.726,90,90,90,0,-2.142,0.047,0.001,12.681,0.583
NdPrO3,Nd,Pr,2,4,1.35,0.85,cubic,0,4.505,4.505,4.505,90,90,90,0.745,-2.611,0.987,0,18.292,2.807
NdReO3,Nd,Re,3,3,1.27,0.63,cubic,0,3.975,3.975,3.975,90,90,90,0,-2.042,0.546,0.173,12.558,1.361
NdRhO3,Nd,Rh,2,4,1.35,0.6,orthorhombic,3,5.385,5.839,7.793,90,90,90,0.729,-2.336,-0.059,0,12.251,0.681
NdRuO3,Nd,Ru,2,4,1.35,0.62,orthorhombic,3,5.347,5.888,7.772,90,90,90,0,-2.339,0.041,0.198,12.234,1.544
NdSbO3,Nd,Sb,3,3,1.27,0.76,cubic,0,4.238,4.238,4.238,90,90,90,0,-1.914,0.764,0,15.219,1.8
NdScO3,Nd,Sc,3,3,1.27,0.75,orthorhombic,3,5.565,5.802,8.004,90,90,90,4.473,-3.736,-0.022,0,12.923,5.348
NdSiO3,Nd,Si,3,3,1.27,0.4,cubic,0,3.765,3.765,3.765,90,90,90,0,-2.679,0.614,0.001,10.671,4.689
NdSmO3,Nd,Sm,3,3,1.27,0.96,cubic,0,4.402,4.402,4.402,90,90,90,1.318,-2.834,0.827,0,17.064,0.939
NdSnO3,Nd,Sn,2,4,1.35,0.69,cubic,0,4.139,4.139,4.139,90,90,90,0,-2.162,0.615,0,14.186,2.655
NdTaO3,Nd,Ta,2,4,1.35,0.68,orthorhombic,3,5.499,6.015,7.792,90,90,90,0,-2.929,0.323,0,12.886,4.009
NdTbO3,Nd,Tb,2,4,1.35,0.76,cubic,0,4.309,4.309,4.309,90,90,90,1.693,-2.905,0.685,0,16.004,4.27
NdTeO3,Nd,Te,2,4,1.35,0.97,cubic,0,4.258,4.258,4.258,90,90,90,0,-1.602,0.887,0,15.437,1.424
NdThO3,Nd,Th,2,4,1.35,0.94,cubic,0,4.56,4.56,4.56,90,90,90,0,-2.933,0.816,0.047,18.964,3.009
NdTiO3,Nd,Ti,2,4,1.35,0.61,orthorhombic,3,5.457,5.7,7.804,90,90,90,0,-3.396,0.023,0.199,12.138,5.207
NdTlO3,Nd,Tl,3,3,1.27,0.89,orthorhombic,3,5.739,6.113,8.439,90,90,90,1.178,-2.226,0.053,0,14.802,1.067
NdTmO3,Nd,Tm,3,3,1.27,0.88,cubic,0,4.215,4.215,4.215,90,90,90,1.895,-3.239,0.537,0,14.978,4.762
NdUO3,Nd,U,2,4,1.35,0.89,cubic,0,4.413,4.413,4.413,90,90,90,0,-2.731,0.798,0.551,17.191,2.91
NdVO3,Nd,V,3,3,1.27,0.64,orthorhombic,3,5.453,5.703,7.776,90,90,90,1.214,-3.196,-0.071,0.4,12.091,4.373
NdWO3,Nd,W,2,4,1.35,0.66,cubic,0,3.988,3.988,3.988,90,90,90,0,-2.336,0.589,0.003,12.683,2.322
NdYO3,Nd,Y,3,3,1.27,0.9,cubic,0,4.285,4.285,4.285,90,90,90,1.82,-3.065,0.649,0,15.735,4.343
NdYbO3,Nd,Yb,3,3,1.27,0.87,cubic,0,4.131,4.131,4.131,90,90,90,0,-2.55,0.726,-0.001,14.1,-1.216
NdZrO3,Nd,Zr,2,4,1.35,0.72,orthorhombic,3,5.643,6.144,7.858,90,90,90,0,-3.332,0.155,0.139,13.622,4.658
NiAsO3,Ni,As,1,5,0.69,0.46,cubic,0,3.714,3.714,3.714,90,90,90,0,-0.43,0.995,0.288,10.247,-3.104
NiBO3,Ni,B,3,3,0.6,0.27,cubic,0,3.355,3.355,3.355,90,90,90,0,-0.476,1.373,0.6,7.552,-4.481
NiCrO3,Ni,Cr,2,4,0.69,0.55,cubic,0,3.708,3.708,3.708,90,90,90,0,-1.078,0.694,-0.001,10.198,-
NiFeO3,Ni,Fe,2,4,0.69,0.59,cubic,0,3.758,3.758,3.758,90,90,90,0,-0.432,0.902,1.231,10.613,-
NiGeO3,Ni,Ge,2,4,0.69,0.53,cubic,0,3.683,3.683,3.683,90,90,90,0,-0.727,0.971,0.401,9.993,-
NiHfO3,Ni,Hf,2,4,0.69,0.71,cubic,0,4.043,4.043,4.043,90,90,90,0,-1.744,1.056,0.4,13.216,-2.313
NiIrO3,Ni,Ir,2,4,0.69,0.63,cubic,0,3.809,3.809,3.809,90,90,90,0,-0.19,0.945,0.209,11.054,-
NiMnO3,Ni,Mn,2,4,0.69,0.53,cubic,0,3.625,3.625,3.625,90,90,90,0,-0.583,1.013,1.014,9.523,-3.746
NiMoO3,Ni,Mo,2,4,0.69,0.65,cubic,0,3.852,3.852,3.852,90,90,90,0,-1.063,0.743,0.214,11.429,0.705
NiNbO3,Ni,Nb,2,4,0.69,0.68,cubic,0,3.963,3.963,3.963,90,90,90,0,-1.488,0.775,0.202,12.449,1.244
NiPbO3,Ni,Pb,2,4,0.69,0.78,orthorhombic,3,5.429,5.509,8.043,90,90,90,0.343,-1.052,0.114,0.4,12.029,-
NiPdO3,Ni,Pd,2,4,0.69,0.62,cubic,0,3.892,3.892,3.892,90,90,90,0,0.049,0.805,0.499,11.788,-0.931
NiReO3,Ni,Re,2,4,0.69,0.63,cubic,0,3.847,3.847,3.847,90,90,90,0,-0.747,0.775,0.195,11.388,0.228
NiRhO3,Ni,Rh,2,4,0.69,0.6,cubic,0,3.864,3.864,3.864,90,90,90,0,-0.227,0.893,-0.142,11.537,-0.282
NiRuO3,Ni,Ru,2,4,0.69,0.62,cubic,0,3.739,3.739,3.739,90,90,90,0,-0.398,0.858,0.08,10.453,-
NiSbO3,Ni,Sb,1,5,0.69,0.6,cubic,0,3.935,3.935,3.935,90,90,90,0,-0.607,0.916,0.235,12.185,-1.081
NiSiO3,Ni,Si,2,4,0.69,0.4,cubic,0,3.495,3.495,3.495,90,90,90,0,-1.453,0.91,0.4,8.536,0.759
NiSnO3,Ni,Sn,2,4,0.69,0.69,cubic,0,3.991,3.991,3.991,90,90,90,0,-0.582,1.087,0.4,12.711,-
NiTaO3,Ni,Ta,2,4,0.69,0.68,cubic,0,3.935,3.935,3.935,90,90,90,0,-1.737,0.738,0.2,12.189,2.05
NiTeO3,Ni,Te,2,4,0.69,0.97,cubic,0,4.032,4.032,4.032,90,90,90,0,-0.257,1.06,0.228,13.109,-
NiTiO3,Ni,Ti,2,4,0.69,0.61,cubic,0,3.855,3.855,3.855,90,90,90,0,-1.545,0.923,0.4,11.461,-
NiVO3,Ni,V,2,4,0.69,0.58,cubic,0,3.71,3.71,3.71,90,90,90,0,-1.169,0.836,0.2,10.21,-
NiWO3,Ni,W,2,4,0.69,0.66,cubic,0,4.458,4.458,4.458,90,90,90,0,-0.276,1.681,-0.224,17.717,-7.998
NiZrO3,Ni,Zr,2,4,0.69,0.72,cubic,0,4.107,4.107,4.107,90,90,90,0,-1.549,1.128,0.4,13.856,-2.937
PbBeO3,Pb,Be,4,2,0.94,0.45,cubic,0,3.609,3.609,3.609,90,90,90,0,-1.23,0.625,-,9.405,-2.682
PbCeO3,Pb,Ce,2,4,1.49,0.87,cubic,0,4.509,4.509,4.509,90,90,90,0,-1.755,0.622,0.197,18.335,-1.369
PbCoO3,Pb,Co,2,4,1.49,0.53,orthorhombic,3,5.301,5.541,7.793,90,90,90,0,-1.077,0.184,0.164,11.444,0.756
PbCrO3,Pb,Cr,2,4,1.49,0.55,orthorhombic,3,5.425,5.554,7.724,90,90,90,0,-1.79,0.08,0.468,11.637,1.768
PbFeO3,Pb,Fe,2,4,1.49,0.59,orthorhombic,3,5.42,5.599,7.768,90,90,90,0,-1.359,0.083,0.871,11.787,0.789
PbGeO3,Pb,Ge,2,4,1.49,0.53,tetragonal,1,3.668,3.668,4.715,90,90,90,0,-1.609,0.152,-,12.688,3.527
PbHfO3,Pb,Hf,2,4,1.49,0.71,orthorhombic,3,5.759,5.829,8.193,90,90,90,3.019,-2.824,0.008,0,13.752,-
PbIrO3,Pb,Ir,2,4,1.49,0.63,orthorhombic,3,5.538,5.721,7.871,90,90,90,0,-1.015,0.211,0,12.471,1.939
PbMnO3,Pb,Mn,2,4,1.49,0.53,orthorhombic,3,5.442,5.536,7.743,90,90,90,0,-1.56,0.065,0.631,11.666,1.118
PbMoO3,Pb,Mo,2,4,1.49,0.65,tetragonal,1,3.999,3.999,4.043,90,90,90,0,-1.751,0.137,0,12.931,4.758
PbNbO3,Pb,Nb,2,4,1.49,0.68,orthorhombic,3,5.739,5.764,8.148,90,90,90,0,-2.173,0.127,0.002,13.477,-
PbNiO3,Pb,Ni,2,4,1.49,0.48,orthorhombic,3,5.264,5.479,7.756,90,90,90,0,-1.163,0.002,0.397,11.185,-1.411
PbPdO3,Pb,Pd,2,4,1.49,0.62,orthorhombic,3,5.525,5.783,7.857,90,90,90,0,-0.901,0.028,-,12.551,0.332
PbPrO3,Pb,Pr,2,4,1.49,0.85,cubic,0,4.457,4.457,4.457,90,90,90,0,-1.8,0.605,0.2,17.71,-1.388
PbReO3,Pb,Re,2,4,1.49,0.63,cubic,0,3.993,3.993,3.993,90,90,90,0,-1.373,0.183,0.003,12.732,3.992
PbRhO3,Pb,Rh,2,4,1.49,0.6,orthorhombic,3,5.491,5.694,7.82,90,90,90,0,-1.085,0.067,0,12.223,1.584
PbRuO3,Pb,Ru,2,4,1.49,0.62,orthorhombic,3,5.531,5.633,7.878,90,90,90,0,-1.176,0.112,0.195,12.273,2.962
PbSbO3,Pb,Sb,2,4,1.49,0.68,orthorhombic,3,5.856,5.969,8.357,90,90,90,0,-1.447,0.118,-,14.606,2.448
PbSiO3,Pb,Si,2,4,1.49,0.4,tetragonal,1,3.493,3.493,4.738,90,90,90,1.837,-2.126,0.276,-,11.559,4.91
PbSnO3,Pb,Sn,2,4,1.49,0.69,rhombohedral,2,5.759,5.759,5.759,60.6,60.6,60.6,1.879,-1.656,0.058,-,13.699,3.602
PbTaO3,Pb,Ta,2,4,1.49,0.68,rhombohedral,2,5.712,5.712,5.712,60.6,60.6,60.6,0,-2.291,0.165,0,13.368,-
PbTbO3,Pb,Tb,2,4,1.49,0.76,orthorhombic,3,5.822,6.068,8.503,90,90,90,0,-2.273,0.124,0.001,15.019,-0.948
PbTeO3,Pb,Te,2,4,1.49,0.97,tetragonal,1,4.256,4.256,4.495,90,90,90,0,-1.235,0.14,-,16.283,2.828
PbThO3,Pb,Th,2,4,1.49,0.94,orthorhombic,3,6.109,6.404,8.863,90,90,90,2.938,-2.898,0.173,0,17.337,3.431
PbTiO3,Pb,Ti,2,4,1.49,0.61,tetragonal,1,3.894,3.894,4.236,90,90,90,1.687,-2.517,-0.021,0,12.85,-
PbUO3,Pb,U,2,4,1.49,0.89,orthorhombic,3,6.032,6.278,8.711,90,90,90,1.935,-2.715,0.105,0.4,16.492,-
PbVO3,Pb,V,2,4,1.49,0.58,tetragonal,1,3.874,3.874,4.383,90,90,90,1.006,-2.05,0.033,0.2,13.155,3.148
PbWO3,Pb,W,2,4,1.49,0.66,cubic,0,4.016,4.016,4.016,90,90,90,0,-1.749,0.225,0,12.956,-
PbZrO3,Pb,Zr,2,4,1.49,0.72,orthorhombic,3,5.8,5.895,8.269,90,90,90,2.846,-2.678,0.03,0,14.136,-
PdAgO3,Pd,Ag,3,3,0.76,0.75,cubic,0,3.99,3.99,3.99,90,90,90,0,0.553,0.991,-,12.705,-5.204
PdAlO3,Pd,Al,3,3,0.76,0.54,cubic,0,3.662,3.662,3.662,90,90,90,0,-1.341,0.551,-,9.822,-1.435
PdAsO3,Pd,As,3,3,0.76,0.58,cubic,0,3.767,3.767,3.767,90,90,90,0,-0.448,0.649,-,10.69,0.356
PdBO3,Pd,B,3,3,0.76,0.27,cubic,0,3.394,3.394,3.394,90,90,90,0,-0.392,1.179,-,7.821,-1.727
PdBeO3,Pd,Be,4,2,0.62,0.45,cubic,0,3.461,3.461,3.461,90,90,90,0,-0.685,0.761,-,8.288,-3.744
PdCeO3,Pd,Ce,2,4,0.86,0.87,orthorhombic,3,5.847,6.056,8.22,90,90,90,0,-1.756,0.351,0,14.554,-5.49
PdCoO3,Pd,Co,2,4,0.86,0.53,cubic,0,3.695,3.695,3.695,90,90,90,0,-0.166,0.72,0.025,10.092,-0.712
PdCrO3,Pd,Cr,2,4,0.86,0.55,cubic,0,3.772,3.772,3.772,90,90,90,0,-0.972,0.554,-0.001,10.735,0.047
PdCuO3,Pd,Cu,3,3,0.76,0.54,cubic,0,3.704,3.704,3.704,90,90,90,0,0.102,0.716,-,10.167,-3.672
PdDyO3,Pd,Dy,3,3,0.76,0.91,cubic,0,4.33,4.33,4.33,90,90,90,0,-1.171,1.034,0.596,16.232,-4.539
PdErO3,Pd,Er,3,3,0.76,0.89,cubic,0,4.288,4.288,4.288,90,90,90,0,-1.233,0.975,0.599,15.769,-4.271
PdEuO3,Pd,Eu,3,3,0.76,0.95,orthorhombic,3,5.834,5.856,7.854,90,90,90,0,-1.498,0.386,0,13.416,-6.021
PdFeO3,Pd,Fe,3,3,0.76,0.65,cubic,0,3.768,3.768,3.768,90,90,90,0,-0.509,0.576,0.4,10.699,-1.858
PdGaO3,Pd,Ga,3,3,0.76,0.62,cubic,0,3.8,3.8,3.8,90,90,90,0,-0.575,0.735,-,10.97,-3.072
PdGdO3,Pd,Gd,3,3,0.76,0.94,cubic,0,4.369,4.369,4.369,90,90,90,0,-1.012,1.218,-0.04,16.679,-5.74
PdGeO3,Pd,Ge,2,4,0.86,0.53,cubic,0,3.73,3.73,3.73,90,90,90,0,-0.737,0.656,-,10.377,0.441
PdHfO3,Pd,Hf,2,4,0.86,0.71,cubic,0,4.067,4.067,4.067,90,90,90,0,-1.905,0.658,0.394,13.454,-0.19
PdHoO3,Pd,Ho,3,3,0.76,0.9,cubic,0,4.308,4.308,4.308,90,90,90,0,-1.203,0.994,0.6,15.991,-4.397
PdInO3,Pd,In,3,3,0.76,0.8,cubic,0,4.109,4.109,4.109,90,90,90,0,-0.175,1.007,-,13.874,-4.979
PdIrO3,Pd,Ir,2,4,0.86,0.63,cubic,0,3.877,3.877,3.877,90,90,90,0,-0.197,0.702,0.006,11.656,1.11
PdLaO3,Pd,La,3,3,0.76,1.03,orthorhombic,3,5.815,6.028,8.256,90,90,90,0,-1.869,0.334,0,14.471,-5.572
PdLuO3,Pd,Lu,3,3,0.76,0.86,cubic,0,4.206,4.206,4.206,90,90,90,0,-1.321,0.92,0.59,14.877,-3.88
PdMnO3,Pd,Mn,2,4,0.86,0.53,cubic,0,3.771,3.771,3.771,90,90,90,0,-0.738,0.572,0.2,10.725,-1.097
PdMoO3,Pd,Mo,2,4,0.86,0.65,orthorhombic,3,5.258,5.581,7.617,90,90,90,0,-1.322,0.408,-0.055,11.176,3.431
PdNbO3,Pd,Nb,2,4,0.86,0.68,orthorhombic,3,5.391,5.63,7.755,90,90,90,0,-1.76,0.353,0.2,11.769,2.5
PdNdO3,Pd,Nd,3,3,0.76,0.98,cubic,0,4.475,4.475,4.475,90,90,90,0,-0.941,1.248,0.6,17.921,-5.275
PdNiO3,Pd,Ni,2,4,0.86,0.48,cubic,0,3.684,3.684,3.684,90,90,90,0,-0.067,0.69,0.811,9.996,-3.072
PdPbO3,Pd,Pb,2,4,0.86,0.78,orthorhombic,3,5.382,5.752,8.415,90,90,90,0,-0.656,0.273,-,13.025,-3.693
Pd2O3,Pd,Pd,3,3,0.76,0.76,cubic,0,3.919,3.919,3.919,90,90,90,0,0.207,0.726,-,12.035,-2.526
PdPrO3,Pd,Pr,3,3,0.76,0.99,orthorhombic,3,5.785,6.016,8.183,90,90,90,0,-1.781,0.356,0,14.24,-5.349
PdReO3,Pd,Re,2,4,0.86,0.63,cubic,0,3.865,3.865,3.865,90,90,90,0,-0.958,0.562,-0.032,11.548,3.701
PdRhO3,Pd,Rh,2,4,0.86,0.6,cubic,0,3.876,3.876,3.876,90,90,90,0,-0.137,0.745,0.375,11.644,-0.412
PdRuO3,Pd,Ru,2,4,0.86,0.62,cubic,0,3.847,3.847,3.847,90,90,90,0,-0.455,0.564,-0.013,11.384,1.85
PdSbO3,Pd,Sb,2,4,0.86,0.68,cubic,0,3.953,3.953,3.953,90,90,90,0,-0.726,0.525,-,12.358,1.009
PdScO3,Pd,Sc,3,3,0.76,0.75,cubic,0,4.022,4.022,4.022,90,90,90,0,-1.289,0.874,-0.005,13.009,-3.967
PdSiO3,Pd,Si,2,4,0.86,0.4,cubic,0,3.564,3.564,3.564,90,90,90,0,-1.372,0.732,-,9.053,1.398
PdSmO3,Pd,Sm,3,3,0.76,0.96,cubic,0,4.398,4.398,4.398,90,90,90,0,-1.01,1.156,0.6,17.017,-5.138
PdSnO3,Pd,Sn,2,4,0.86,0.69,cubic,0,4.018,4.018,4.018,90,90,90,0,-0.679,0.753,-,12.972,-0.903
PdTaO3,Pd,Ta,2,4,0.86,0.68,orthorhombic,3,5.416,5.577,7.755,90,90,90,0,-1.982,0.339,0.2,11.713,3.197
PdTbO3,Pd,Tb,2,4,0.86,0.76,cubic,0,4.349,4.349,4.349,90,90,90,0,-1.006,1.063,0.593,16.456,-4.687
PdTeO3,Pd,Te,2,4,0.86,0.97,cubic,0,4.025,4.025,4.025,90,90,90,0,-0.408,0.631,-,13.04,0.405
PdThO3,Pd,Th,2,4,0.86,0.94,cubic,0,4.507,4.507,4.507,90,90,90,0,-1.746,1.055,0.425,18.304,-2.178
PdTiO3,Pd,Ti,2,4,0.86,0.61,cubic,0,3.856,3.856,3.856,90,90,90,0,-1.65,0.555,0.396,11.464,0.139
PdTlO3,Pd,Tl,3,3,0.76,0.89,cubic,0,4.188,4.188,4.188,90,90,90,0,0.374,1.116,-,14.691,-6.1
PdTmO3,Pd,Tm,3,3,0.76,0.88,cubic,0,4.247,4.247,4.247,90,90,90,0,-1.27,0.956,0.602,15.325,-3.996
PdUO3,Pd,U,2,4,0.86,0.89,cubic,0,4.209,4.209,4.209,90,90,90,0.538,-1.997,0.555,0,14.913,1.74
PdVO3,Pd,V,2,4,0.86,0.58,cubic,0,3.767,3.767,3.767,90,90,90,0,-1.267,0.495,0.203,10.691,1.653
PdWO3,Pd,W,2,4,0.86,0.66,cubic,0,3.895,3.895,3.895,90,90,90,0,-1.411,0.546,-0.062,11.819,4.195
PdYO3,Pd,Y,3,3,0.76,0.9,cubic,0,4.344,4.344,4.344,90,90,90,0,-1.149,1.08,0.6,16.398,-4.518
PdYbO3,Pd,Yb,3,3,0.76,0.87,orthorhombic,3,5.371,5.643,8.172,90,90,90,0.215,-1.535,0.359,-,12.384,-8.424
PdZrO3,Pd,Zr,2,4,0.86,0.72,cubic,0,4.124,4.124,4.124,90,90,90,0,-1.72,0.719,0.397,14.033,-0.785
PrAgO3,Pr,Ag,3,3,1.18,0.75,orthorhombic,3,5.598,6.01,8.009,90,90,90,0,-1.892,0.009,0,13.474,0.177
PrAlO3,Pr,Al,3,3,1.18,0.54,rhombohedral,2,5.323,5.323,5.323,60.5,60.5,60.5,4.271,-3.5,-0.079,0,10.784,6.474
PrAsO3,Pr,As,3,3,1.18,0.58,orthorhombic,3,5.595,5.973,8.07,90,90,90,0,-2.345,0.166,0,13.485,2.791
PrBO3,Pr,B,4,2,0.96,0.27,cubic,0,3.567,3.567,3.567,90,90,90,2.243,-2.4,0.885,0,9.076,4.889
PrBiO3,Pr,Bi,3,3,1.18,1.03,cubic,0,4.364,4.364,4.364,90,90,90,0,-1.746,0.779,0,16.619,1.423
PrCeO3,Pr,Ce,3,3,1.18,1.01,cubic,0,4.554,4.554,4.554,90,90,90,0.881,-2.558,0.99,0,18.884,2.634
PrCoO3,Pr,Co,3,3,1.18,0.61,orthorhombic,3,5.39,5.477,7.701,90,90,90,1.178,-2.415,-0.001,0,11.367,-
PrCrO3,Pr,Cr,3,3,1.18,0.62,orthorhombic,3,5.462,5.596,7.782,90,90,90,2.237,-3.104,-0.075,0.6,11.895,4.766
PrCuO3,Pr,Cu,3,3,1.18,0.54,orthorhombic,3,5.414,5.434,7.661,90,90,90,0,-2.172,-0.052,0,11.27,1.338
PrDyO3,Pr,Dy,3,3,1.18,0.91,cubic,0,4.291,4.291,4.291,90,90,90,1.646,-3.123,0.59,0,15.805,4.491
PrErO3,Pr,Er,3,3,1.18,0.89,orthorhombic,3,5.781,6.039,8.377,90,90,90,4.898,-3.704,0.033,0,14.623,4.728
PrEuO3,Pr,Eu,3,3,1.18,0.95,cubic,0,4.287,4.287,4.287,90,90,90,0,-2.362,0.785,0.141,15.752,-1.198
PrFeO3,Pr,Fe,3,3,1.18,0.65,orthorhombic,3,5.477,5.641,7.811,90,90,90,1.048,-2.69,-0.077,1,12.066,3.968
PrGaO3,Pr,Ga,3,3,1.18,0.62,orthorhombic,3,5.468,5.548,7.771,90,90,90,3.774,-2.875,-0.036,0,11.788,4.936
PrGdO3,Pr,Gd,3,3,1.18,0.94,cubic,0,4.342,4.342,4.342,90,90,90,1.533,-3.016,0.668,0,16.368,4.197
PrGeO3,Pr,Ge,3,3,1.18,0.63,orthorhombic,3,5.533,5.846,7.967,90,90,90,0,-2.496,0.142,0,12.886,3.236
PrHfO3,Pr,Hf,3,3,1.18,0.71,orthorhombic,3,5.589,5.595,8.514,90,90,90,0,-3.402,0.114,0,13.311,5.113
PrHoO3,Pr,Ho,3,3,1.18,0.9,cubic,0,4.267,4.267,4.267,90,90,90,1.831,-3.171,0.554,0,15.54,4.602
PrInO3,Pr,In,3,3,1.18,0.8,orthorhombic,3,5.67,5.968,8.212,90,90,90,2.989,-2.705,0.005,0,13.896,3.343
PrIrO3,Pr,Ir,3,3,1.18,0.68,orthorhombic,3,5.402,5.928,7.846,90,90,90,0.873,-2.181,0.104,0,12.563,0.203
PrLaO3,Pr,La,3,3,1.18,1.03,cubic,0,4.533,4.533,4.533,90,90,90,0.501,-2.68,0.965,0,18.627,2.547
PrLuO3,Pr,Lu,3,3,1.18,0.86,orthorhombic,3,5.729,5.966,8.292,90,90,90,5.018,-3.755,0.013,0,14.171,5.041
PrMnO3,Pr,Mn,3,3,1.18,0.65,orthorhombic,3,5.468,5.685,7.77,90,90,90,0,-2.868,0.002,0.8,12.077,3.883
PrMoO3,Pr,Mo,3,3,1.18,0.69,orthorhombic,3,5.531,5.928,7.974,90,90,90,0,-2.596,0.189,0.549,13.072,2.939
PrNbO3,Pr,Nb,3,3,1.18,0.72,orthorhombic,3,5.542,6.032,7.899,90,90,90,0,-2.913,0.193,0.001,13.202,4.097
PrNdO3,Pr,Nd,3,3,1.18,0.98,cubic,0,4.472,4.472,4.472,90,90,90,1.091,-2.732,0.866,0,17.89,3.249
PrNiO3,Pr,Ni,3,3,1.18,0.6,orthorhombic,3,5.395,5.423,7.636,90,90,90,0,-2.312,-0.028,0.198,11.169,1.493
PrPdO3,Pr,Pd,2,4,1.18,0.62,orthorhombic,3,5.552,5.951,7.794,90,90,90,0,-2.127,0.01,0.001,12.876,0.75
Pr2O3,Pr,Pr,3,3,1.18,0.99,cubic,0,4.51,4.51,4.51,90,90,90,0.91,-2.652,0.924,0,18.345,2.96
PrReO3,Pr,Re,3,3,1.18,0.63,cubic,0,3.983,3.983,3.983,90,90,90,0,-2.061,0.541,0.177,12.642,1.618
PrRhO3,Pr,Rh,3,3,1.18,0.67,orthorhombic,3,5.421,5.849,7.839,90,90,90,0.708,-2.316,-0.06,0,12.426,0.878
PrRuO3,Pr,Ru,3,3,1.18,0.68,orthorhombic,3,5.384,5.895,7.818,90,90,90,0,-2.32,0.072,0.198,12.405,1.73
PrSbO3,Pr,Sb,3,3,1.18,0.76,cubic,0,4.248,4.248,4.248,90,90,90,0,-1.946,0.711,0,15.329,1.926
PrScO3,Pr,Sc,3,3,1.18,0.75,orthorhombic,3,5.596,5.811,8.04,90,90,90,4.487,-3.721,-0.029,0,13.073,5.422
PrSiO3,Pr,Si,3,3,1.18,0.4,tetragonal,1,3.579,3.579,4.549,90,90,90,0,-2.737,0.434,0.001,11.65,4.673
PrSmO3,Pr,Sm,3,3,1.18,0.96,cubic,0,4.408,4.408,4.408,90,90,90,1.274,-2.872,0.767,0,17.13,3.759
PrSnO3,Pr,Sn,3,3,1.18,0.69,cubic,0,4.151,4.151,4.151,90,90,90,0,-2.187,0.571,0,14.3,2.737
PrTaO3,Pr,Ta,3,3,1.18,0.72,orthorhombic,3,5.526,6.018,7.85,90,90,90,0,-2.914,0.311,0,13.054,4.18
PrTbO3,Pr,Tb,3,3,1.18,0.92,cubic,0,4.315,4.315,4.315,90,90,90,1.649,-2.941,0.628,0,16.073,4.361
PrTeO3,Pr,Te,2,4,1.18,0.97,cubic,0,4.266,4.266,4.266,90,90,90,0,-1.633,0.809,0,15.529,1.546
PrTiO3,Pr,Ti,3,3,1.18,0.67,orthorhombic,3,5.493,5.695,7.84,90,90,90,0,-3.382,-0.033,0.194,12.264,5.31
PrTlO3,Pr,Tl,3,3,1.18,0.89,orthorhombic,3,5.774,6.149,8.433,90,90,90,1.132,-2.214,0.043,0,14.972,1.197
PrTmO3,Pr,Tm,3,3,1.18,0.88,orthorhombic,3,5.763,6.005,8.349,90,90,90,5.007,-3.729,0.025,0,14.447,4.856
PrUO3,Pr,U,3,3,1.18,1.03,cubic,0,4.397,4.397,4.397,90,90,90,0,-2.754,0.752,0.546,16.999,2.997
PrVO3,Pr,V,3,3,1.18,0.64,orthorhombic,3,5.482,5.721,7.814,90,90,90,1.333,-3.18,-0.077,0.4,12.254,4.458
PrWO3,Pr,W,3,3,1.18,0.66,orthorhombic,3,5.371,6.049,7.836,90,90,90,0,-2.469,0.386,0.001,12.729,2.545
PrYO3,Pr,Y,3,3,1.18,0.9,cubic,0,4.291,4.291,4.291,90,90,90,2.003,-3.1,0.593,0,15.797,4.454
PrYbO3,Pr,Yb,3,3,1.18,0.87,cubic,0,4.142,4.142,4.142,90,90,90,0,-2.584,0.608,0.064,14.208,-1.033
PrZrO3,Pr,Zr,3,3,1.18,0.72,orthorhombic,3,5.681,6.093,8.031,90,90,90,0,-3.32,0.152,0.167,13.899,4.757
RbBiO3,Rb,Bi,1,5,1.72,0.76,cubic,0,4.277,4.277,4.277,90,90,90,0,-1.302,0.121,-,15.651,0.222
RbCrO3,Rb,Cr,1,5,1.72,0.49,cubic,0,3.819,3.819,3.819,90,90,90,0,-1.509,0.537,0.2,11.14,-0.714
RbIrO3,Rb,Ir,1,5,1.72,0.57,rhombohedral,2,5.625,5.625,5.625,60.1,60.1,60.1,0,-1.034,0.256,0.268,12.613,1.078
RbMoO3,Rb,Mo,1,5,1.72,0.61,rhombohedral,2,5.636,5.636,5.636,60,60,60,0,-2.143,0.13,0,12.656,4.668
RbNbO3,Rb,Nb,1,5,1.72,0.64,tetragonal,1,4.036,4.036,4.162,90,90,90,1.587,-2.612,0.062,0,13.561,5.22
RbReO3,Rb,Re,1,5,1.72,0.58,cubic,0,3.956,3.956,3.956,90,90,90,0,-1.807,0.115,0,12.383,4.572
RbRuO3,Rb,Ru,1,5,1.72,0.57,cubic,0,3.951,3.951,3.951,90,90,90,0,-1.265,0.189,0.004,12.332,1.633
RbSbO3,Rb,Sb,1,5,1.72,0.6,tetragonal,1,3.763,3.763,5.864,90,90,90,0,-1.659,0.194,-,16.604,1.916
RbTaO3,Rb,Ta,1,5,1.72,0.64,tetragonal,1,4.027,4.027,4.121,90,90,90,2.228,-2.824,0.048,0,13.367,6.335
RbUO3,Rb,U,1,5,1.72,0.76,rhombohedral,2,6.179,6.179,6.179,60,60,60,2.986,-3.114,-0.053,0.2,16.684,4.513
RbWO3,Rb,W,1,5,1.72,0.62,orthorhombic,3,5.632,5.636,7.973,90,90,90,0,-2.262,0.115,-0.001,12.654,5.767